! Touchstone file exported from HFSS 2018.2.0
!        File:           C:/Users/10024/OneDrive - The University of Nottingham Ningbo China/Year 4/Final Year Project/HFSS project/Passive_Resonator_Antenna.aedt
!        Generated:      4:20:26 下午  3月 11, 2022
!        Design:         SMA_noXY
!        Project:        Passive_Resonator_Antenna
!        Setup:          Setup1
!        Solution:       Sweep
!
! Variables:
!        MW = 1.992mm
!        ThruL = 40mm
!        g = 5mm
!        subH = 0.8mm
!        subX = 20mm
!        subY = 50mm
!
# GHZ S MA R 50.000000
! Modal data exported
! Port[1] = 1:1
! Port[2] = 2:1
1                0.0489404130129196 -175.359754254159 0.99557901481706 -78.188844560405 0.995579014817061 -78.188844560405 0.0491150837666792 -159.670361644944 
! Gamma         !               0                0                0                0                
! Port Impedance50               0                50               0                

1.02             0.0489160717487935 -176.990107630218 0.99548175956979 -79.7491097324127 0.995481759569791 -79.7491097324127 0.0490955364642881 -161.084496169327 
! Gamma         !               0                0                0                0                
! Port Impedance50               0                50               0                

1.04             0.0488413377356678 -178.626784200247 0.995385933685207 -81.3093145598634 0.995385933685207 -81.3093145598634 0.0490272429574883 -162.487920662237 
! Gamma         !               0                0                0                0                
! Port Impedance50               0                50               0                

1.06             0.0487162809233242 179.730011861459 0.995291578833869 -82.8694676796299 0.995291578833868 -82.8694676796299 0.0489102401782871 -163.880280714006 
! Gamma         !               0                0                0                0                
! Port Impedance50               0                50               0                

1.08             0.0485410131565251 178.080033673068 0.995198727554302 -84.429577777687 0.9951987275543  -84.4295777776871 0.0487446138878363 -165.261163474405 
! Gamma         !               0                0                0                0                
! Port Impedance50               0                50               0                

1.1              0.0483156883979611 176.422989409335 0.995107403235708 -85.9896535575044 0.995107403235705 -85.9896535575045 0.0485304990187977 -166.63009342894 
! Gamma         !               0                0                0                0                
! Port Impedance50               0                50               0                

1.12             0.0480405029514414 174.758539413205 0.995017620133349 -87.5497037084535 0.995017620133345 -87.5497037084536 0.0482680800953087 -167.986527328864 
! Gamma         !               0                0                0                0                
! Port Impedance50               0                50               0                

1.14             0.0477156956935459 173.086292589076 0.99492938341654 -89.1097368743347 0.994929383416536 -89.1097368743349 0.0479575917431743 -169.329848171482 
! Gamma         !               0                0                0                0                
! Port Impedance50               0                50               0                

1.16             0.047341548322718 171.405801991657 0.994842689249033 -90.6697616221364 0.99484268924903 -90.6697616221366 0.0475993193055861 -170.659358103336 
! Gamma         !               0                0                0                0                
! Port Impedance50               0                50               0                

1.18             0.0469183856358815 169.716559500784 0.994757524901522 -92.2297864111314 0.994757524901518 -92.2297864111315 0.0471935995829522 -171.974270090576 
! Gamma         !               0                0                0                0                
! Port Impedance50               0                50               0                

1.2              0.0464465758440677 168.017989444498 0.994673868895842 -93.7898195624187 0.994673868895837 -93.7898195624189 0.0467408217193746 -173.273698166902 
! Gamma         !               0                0                0                0                
! Port Impedance50               0                50               0                

1.22             0.0459265309404774 166.309440998793 0.994591691180394 -95.3498692290176 0.99459169118039 -95.3498692290178 0.0462414282632317 -174.556646028601 
! Gamma         !               0                0                0                0                
! Port Impedance50               0                50               0                

1.24             0.0453587071367978 164.590179150951 0.994510953336167 -96.9099433666151 0.994510953336162 -96.9099433666154 0.0456959164352974 -175.821993696568 
! Gamma         !               0                0                0                0                
! Port Impedance50               0                50               0                

1.26             0.0447436053868077 162.859373962023 0.994431608812678 -98.4700497050725 0.994431608812672 -98.4700497050728 0.0451048396453146 -177.068481904477 
! Gamma         !               0                0                0                0                
! Port Impedance50               0                50               0                

1.28             0.0440817720203658 161.116087799888 0.994353603193028 -100.030195720788 0.994353603193022 -100.030195720788 0.044468809307232 -178.294693797671 
! Gamma         !               0                0                0                0                
! Port Impedance50               0                50               0                

1.3              0.0433737995161465 159.359260133525 0.994276874487173 -101.590388610012 0.994276874487168 -101.590388610012 0.043788497014926 -179.499033435149 
! Gamma         !               0                0                0                0                
! Port Impedance50               0                50               0                

1.32             0.0426203274483163 157.587689376552 0.994201353452445 -103.150635263217 0.994201353452438 -103.150635263218 0.0430646371549238 179.320299527474 
! Gamma         !               0                0                0                0                
! Port Impedance50               0                50               0                

1.34             0.0418220436511668 155.800011136915 0.994126963940213 -104.7109422406  0.994126963940206 -104.710942240601 0.0422980300511487 178.165339738877 
! Gamma         !               0                0                0                0                
! Port Impedance50               0                50               0                

1.36             0.0409796856572675 153.99467206048  0.994053623267549 -106.271315748816 0.994053623267542 -106.271315748817 0.0414895457603274 177.038391580515 
! Gamma         !               0                0                0                0                
! Port Impedance50               0                50               0                

1.38             0.0400940424797934 152.169898236746 0.993981242612629 -107.831761619023 0.993981242612621 -107.831761619024 0.0406401286668813 175.942071291161 
! Gamma         !               0                0                0                0                
! Port Impedance50               0                50               0                

1.4              0.0391659568296625 150.323656847627 0.993909727432522 -109.392285286317 0.993909727432513 -109.392285286318 0.0397508030649297 174.879357239807 
! Gamma         !               0                0                0                0                
! Port Impedance50               0                50               0                

1.42             0.0381963278846263 148.453609361388 0.993838977901972 -110.952891770634 0.993838977901964 -110.952891770634 0.0388226799653101 173.853650158478 
! Gamma         !               0                0                0                0                
! Port Impedance50               0                50               0                

1.44             0.0371861147630301 146.557054070095 0.993768889371656 -112.513585659184 0.993768889371648 -112.513585659185 0.0378569654308507 172.868845602762 
! Gamma         !               0                0                0                0                
! Port Impedance50               0                50               0                

1.46             0.0361363409030344 144.630855093466 0.993699352844362 -114.074371090499 0.993699352844354 -114.0743710905  0.0368549708286943 171.929421488274 
! Gamma         !               0                0                0                0                
! Port Impedance50               0                50               0                

1.48             0.0350480996137163 142.671354058166 0.993630255467442 -115.635251740129 0.993630255467434 -115.635251740129 0.0358181255011011 171.040544290492 
! Gamma         !               0                0                0                0                
! Port Impedance50               0                50               0                

1.5              0.0339225611549555 140.674259413796 0.993561481039845 -117.196230808066 0.993561481039836 -117.196230808066 0.034747992505229 170.208198436449 
! Gamma         !               0                0                0                0                
! Port Impedance50               0                50               0                

1.52             0.0327609818290739 138.634506626572 0.993492910531959 -118.757311007933 0.993492910531951 -118.757311007934 0.033646288270848 169.439344611455 
! Gamma         !               0                0                0                0                
! Port Impedance50               0                50               0                

1.54             0.0315647157449678 136.54608009642  0.99342442261646 -120.318494557983 0.993424422616451 -120.318494557984 0.0325149072903935 168.742114211988 
! Gamma         !               0                0                0                0                
! Port Impedance50               0                50               0                

1.56             0.0303352301690464 134.401784273381 0.993355894208277 -121.879783173945 0.993355894208271 -121.879783173945 0.0313559533124149 168.126049058366 
! Gamma         !               0                0                0                0                
! Port Impedance50               0                50               0                

1.58             0.0290741257438921 132.192946658497 0.993287201011803 -123.441178063751 0.993287201011795 -123.441178063751 0.0301717789901412 167.602397786422 
! Gamma         !               0                0                0                0                
! Port Impedance50               0                50               0                

1.6              0.0277831633926831 129.909028490638 0.993218218073354 -125.002679924166 0.993218218073347 -125.002679924166 0.0289650365856877 167.184483067467 
! Gamma         !               0                0                0                0                
! Port Impedance50               0                50               0                

1.62             0.0264643005258873 127.537108926359 0.993148820336955 -126.564288939342 0.993148820336947 -126.564288939343 0.0277387432051718 166.888156843791 
! Gamma         !               0                0                0                0                
! Port Impedance50               0                50               0                

1.64             0.0251197403716599 125.061193865063 0.993078883201394 -128.126004781302 0.993078883201387 -128.126004781302 0.0264963652132341 166.732363731561 
! Gamma         !               0                0                0                0                
! Port Impedance50               0                50               0                

1.66             0.0237520000982417 122.461278898661 0.993008283076579 -129.687826612361 0.993008283076572 -129.687826612362 0.0252419280302776 166.739834701303 
! Gamma         !               0                0                0                0                
! Port Impedance50               0                50               0                

1.68             0.0223640062728082 119.712063616581 0.992936897937116 -131.249753089491 0.992936897937109 -131.249753089492 0.0239801595289348 166.937932056948 
! Gamma         !               0                0                0                0                
! Port Impedance50               0                50               0                

1.7              0.0209592307514154 116.781166444177 0.992864607871113 -132.8117823706  0.992864607871106 -132.8117823706  0.0227166777397461 167.359658403798 
! Gamma         !               0                0                0                0                
! Port Impedance50               0                50               0                

1.72             0.0195418874003939 113.626618113758 0.992791295622162 -134.373912122729 0.992791295622156 -134.373912122729 0.0214582363997721 168.044818483644 
! Gamma         !               0                0                0                0                
! Port Impedance50               0                50               0                

1.74             0.0181172219245889 110.193309311073 0.992716847122482 -135.936139532134 0.992716847122476 -135.936139532134 0.0202130444465818 169.041267945275 
! Gamma         !               0                0                0                0                
! Port Impedance50               0                50               0                

1.76             0.0166919465155954 106.407929260386 0.99264115201523 -137.498461316225 0.992641152015224 -137.498461316225 0.0189911763035695 170.406069607275 
! Gamma         !               0                0                0                0                
! Port Impedance50               0                50               0                

1.78             0.0152749027223815 102.171774638871 0.992564104164005 -139.06087373732 0.992564104164   -139.06087373732 0.0178050851006402 172.206160064835 
! Gamma         !               0                0                0                0                
! Port Impedance50               0                50               0                

1.8              0.0138780862026314 97.3507328720143 0.992485602147621 -140.623372618179 0.992485602147615 -140.62337261818 0.0166702133416093 174.51774407857  
! Gamma         !               0                0                0                0                
! Port Impedance50               0                50               0                

1.82             0.012518240231806 91.7621149819812 0.992405549738228 -142.185953359263 0.992405549738223 -142.185953359263 0.0156056512501058 177.423025088585 
! Gamma         !               0                0                0                0                
! Port Impedance50               0                50               0                

1.84             0.0112193059168631 85.1599500192753 0.992323856360992 -143.748610957653 0.992323856360987 -143.748610957653 0.0146347014245027 -178.997898925887 
! Gamma         !               0                0                0                0                
! Port Impedance50               0                50               0                

1.86             0.0100160068304733 77.2268312883005 0.992240437533493 -145.31134002758 0.992240437533489 -145.311340027581 0.0137850505283084 -174.682669864006 
! Gamma         !               0                0                0                0                
! Port Impedance50               0                50               0                

1.88             0.00895837516400026 67.5974612704119 0.992155215283174 -146.87413482249 0.99215521528317 -146.87413482249 0.0130880422508728 -169.611586793421 
! Gamma         !               0                0                0                0                
! Port Impedance50               0                50               0                

1.9              0.00811514050614514 55.9702354117881 0.99206811854118 -148.436989258556 0.992068118541176 -148.436989258556 0.0125764205018458 -163.839096118508 
! Gamma         !               0                0                0                0                
! Port Impedance50               0                50               0                

1.92             0.00756954651507637 42.3718979937261 0.991979083511025 -149.999896939574 0.991979083511021 -149.999896939574 0.0122801705120876 -157.520199232358 
! Gamma         !               0                0                0                0                
! Port Impedance50               0                50               0                

1.94             0.00739798039988896 27.4868272590492 0.991888054010634 -151.562851183151 0.991888054010631 -151.562851183151 0.0122210304972572 -150.911732091489 
! Gamma         !               0                0                0                0                
! Port Impedance50               0                50               0                

1.96             0.00763430309438017 12.627873710816  0.991794981786373 -153.125845048078 0.991794981786371 -153.125845048079 0.0124075899203926 -144.333394888401 
! Gamma         !               0                0                0                0                
! Port Impedance50               0                50               0                

1.98             0.00825024139107039 -0.906453828121953 0.99169982679779 -154.688871362815 0.991699826797788 -154.688871362815 0.0128333916347294 -138.097995708979 
! Gamma         !               0                0                0                0                
! Port Impedance50               0                50               0                

2                0.00917455816374591 -12.4587469717183 0.991602557471919 -156.251922754962 0.991602557471916 -156.251922754962 0.0134790790987447 -132.445268023827 
! Gamma         !               0                0                0                0                
! Port Impedance50               0                50               0                

2.02             0.0103281456917631 -22.0202946711177 0.991503150926074 -157.814991681628 0.991503150926072 -157.814991681628 0.0143173156001125 -127.510536000337 
! Gamma         !               0                0                0                0                
! Port Impedance50               0                50               0                

2.04             0.0116451458360475 -29.8985892676128 0.991401593158221 -159.378070460588 0.991401593158219 -159.378070460588 0.0153180631624726 -123.33219397877 
! Gamma         !               0                0                0                0                
! Port Impedance50               0                50               0                

2.06             0.0130773159606722 -36.4583812143344 0.991297879204091 -160.941151302092 0.991297879204089 -160.941151302092 0.0164524779298901 -119.880401082873 
! Gamma         !               0                0                0                0                
! Port Impedance50               0                50               0                

2.08             0.0145909673096049 -42.0145919667363 0.991192013260367 -162.504226341252 0.991192013260366 -162.504226341252 0.017694989266326 -117.08792283873 
! Gamma         !               0                0                0                0                
! Port Impedance50               0                50               0                

2.1              0.0161627131770646 -46.8106778943543 0.991084008773386 -164.067287670841 0.991084008773385 -164.067287670841 0.019023966083855 -114.873344573406 
! Gamma         !               0                0                0                0                
! Port Impedance50               0                50               0                

2.12             0.0177760661692202 -51.0273104608556 0.990973888492917 -165.630327374428 0.990973888492915 -165.630327374428 0.0204215672707885 -113.155123703913 
! Gamma         !               0                0                0                0                
! Port Impedance50               0                50               0                

2.14             0.019419098177872 -54.7971060341692 0.990861684490749 -167.193337559696 0.990861684490748 -167.193337559696 0.0218732378157669 -111.858605618345 
! Gamma         !               0                0                0                0                
! Port Impedance50               0                50               0                

2.16             0.021082911773605 -58.2176876822134 0.990747438143916 -168.756310391836 0.990747438143916 -168.756310391836 0.0233671196501019 -110.918662617143 
! Gamma         !               0                0                0                0                
! Port Impedance50               0                50               0                

2.18             0.022760653760635 -61.3615896071218 0.990631200082548 -170.319238126893 0.990631200082547 -170.319238126893 0.0248935037063626 -110.279981586656 
! Gamma         !               0                0                0                0                
! Port Impedance50               0                50               0                

2.2              0.0244468753120265 -64.2833592291103 0.99051303010246 -171.882113144933 0.990513030102461 -171.882113144933 0.0264443679971628 -109.89626249842 
! Gamma         !               0                0                0                0                
! Port Impedance50               0                50               0                

2.22             0.0261371115011658 -67.024554370011 0.990392997042759 -173.44492798292 0.990392997042759 -173.44492798292 0.0280130071102387 -109.729023530826 
! Gamma         !               0                0                0                0                
! Port Impedance50               0                50               0                

2.24             0.0278276004925799 -69.6172508471852 0.990271178628812 -175.007675367174 0.990271178628812 -175.007675367174 0.0295937427218614 -109.746359271284 
! Gamma         !               0                0                0                0                
! Port Impedance50               0                50               0                

2.26             0.0295150927665437 -72.0865181504293 0.990147661281153 -176.570348245288 0.990147661281151 -176.570348245289 0.0311817003967939 -109.921804304166 
! Gamma         !               0                0                0                0                
! Port Impedance50               0                50               0                

2.28             0.0311967193088937 -74.4521833298735 0.990022539890895 -178.132939817397 0.990022539890895 -178.132939817397 0.0327726384709217 -110.233354628021 
! Gamma         !               0                0                0                0                
! Port Impedance50               0                50               0                

2.3              0.0328698990756715 -76.7301019354986 0.98989591756265 -179.695443566666 0.989895917562649 -179.695443566666 0.0343628170028046 -110.662651893972 
! Gamma         !               0                0                0                0                
! Port Impedance50               0                50               0                

2.32             0.0345322730646056 -78.9330847462225 0.989767905325367 178.742146711096 0.989767905325368 178.742146711095 0.0359488972358827 -111.194315393035 
! Gamma         !               0                0                0                0                
! Port Impedance50               0                50               0                

2.34             0.0361816567093419 -81.0715816577339 0.989638621812827 177.179836878823 0.989638621812828 177.179836878823 0.037527864201516 -111.815400190707 
! Gamma         !               0                0                0                0                
! Port Impedance50               0                50               0                

2.36             0.0378160050910742 -83.1541923101142 0.989508192914264 175.617632430679 0.989508192914265 175.617632430679 0.0390969668733633 -112.51495951107 
! Gamma         !               0                0                0                0                
! Port Impedance50               0                50               0                

2.38             0.0394333872485761 -85.1880516702373 0.989376751396745 174.05553846574  0.989376751396745 174.05553846574  0.0406536716664302 -113.283691727096 
! Gamma         !               0                0                0                0                
! Port Impedance50               0                50               0                

2.4              0.041031967036431 -87.179124332025 0.98924443650053 172.493559662989 0.989244436500531 172.493559662989 0.0421956261226004 -114.113655340068 
! Gamma         !               0                0                0                0                
! Port Impedance50               0                50               0                

2.42             0.0426099887561509 -89.1324314387031 0.98911139350888 170.931700257688 0.989111393508881 170.931700257688 0.0437206304103543 -114.998038330105 
! Gamma         !               0                0                0                0                
! Port Impedance50               0                50               0                

2.44             0.0441657663074572 -91.0522273382163 0.988977773293837 169.369964019247 0.988977773293838 169.369964019247 0.0452266148513943 -115.93097091549 
! Gamma         !               0                0                0                0                
! Port Impedance50               0                50               0                

2.46             0.0456976749638533 -92.9421383535871 0.988843731839617 167.808354230638 0.988843731839618 167.808354230638 0.0467116221223457 -116.90737298362 
! Gamma         !               0                0                0                0                
! Port Impedance50               0                50               0                

2.48             0.0472041451239698 -94.8052727221494 0.988709429745302 166.246873669468 0.988709429745304 166.246873669468 0.0481737931036502 -117.922829265577 
! Gamma         !               0                0                0                0                
! Port Impedance50               0                50               0                

2.5              0.0486836575636625 -96.6443083912762 0.988575031708602 164.685524590745 0.988575031708603 164.685524590745 0.0496113555900927 -118.973486771485 
! Gamma         !               0                0                0                0                
! Port Impedance50               0                50               0                

2.52             0.0501347398372475 -98.461563658233 0.988440705992507 163.124308711426 0.988440705992509 163.124308711427 0.0510226152589354 -120.05597014748 
! Gamma         !               0                0                0                0                
! Port Impedance50               0                50               0                

2.54             0.0515559635647561 -100.259054408331 0.988306623876746 161.563227196805 0.988306623876748 161.563227196805 0.0524059484285046 -121.167311514975 
! Gamma         !               0                0                0                0                
! Port Impedance50               0                50               0                

2.56             0.0529459424065364 -102.038540801947 0.988172959095932 160.002280648768 0.988172959095934 160.002280648768 0.0537597962438671 -122.30489205977 
! Gamma         !               0                0                0                0                
! Port Impedance50               0                50               0                

2.58             0.0543033305738422 -103.801565592979 0.988039887266422 158.441469095996 0.988039887266422 158.441469095996 0.0550826600051728 -123.466393193441 
! Gamma         !               0                0                0                0                
! Port Impedance50               0                50               0                

2.6              0.0556268217589944 -105.549485763079 0.987907585303846 156.880791986119 0.987907585303847 156.880791986119 0.0563730974148719 -124.649755545692 
! Gamma         !               0                0                0                0                
! Port Impedance50               0                50               0                

2.62             0.0569151483950623 -107.283498781303 0.987776230833375 155.320248179883 0.987776230833375 155.320248179883 0.0576297195666778 -125.85314438993 
! Gamma         !               0                0                0                0                
! Port Impedance50               0                50               0                

2.64             0.0581670811747671 -109.004664514728 0.987646001594726 153.75983594733  0.987646001594727 153.75983594733  0.0588511885353379 -127.074920375811 
! Gamma         !               0                0                0                0                
! Port Impedance50               0                50               0                

2.66             0.0593814287733839 -110.713923598596 0.987517074843997 152.199552966018 0.987517074843998 152.199552966018 0.060036215454468 -128.313614657551 
! Gamma         !               0                0                0                0                
! Port Impedance50               0                50               0                
