! Touchstone file exported from HFSS 2018.2.0
!        File:           C:/Users/10024/OneDrive - The University of Nottingham Ningbo China/Year 4/Final Year Project/HFSS project/Passive_Resonator_Antenna.aedt
!        Generated:      11:26:43 上午  3月 12, 2022
!        Design:         SMA_Thru
!        Project:        Passive_Resonator_Antenna
!        Setup:          Setup1
!        Solution:       Sweep
!
! Variables:
!        MW = 1.992mm
!        ThruL = 13mm
!        g = 0.2mm
!        subH = 0.8mm
!        subX = 20mm
!        subY = 23mm
!        tapW = 1.992mm
!
# GHZ S MA R 50.000000
! Modal data exported
! Port[1] = SMA_CONNECTOR1_1:1
! Port[2] = SMA_CONNECTOR2_1:1
1                0.0193771797723639 -156.022408351676 0.998174070722616 -65.8126191194335 0.998174070722614 -65.8126191194334 0.0193863743029152 -153.993554098877 
! Gamma         !               0.0151858380091375 30.3716836111821 0.0151858380091452 30.3716836111698 
! Port Impedance50               0                50               0                

1.02             0.0195731636465798 -157.255418695919 0.998118807102214 -67.1285723127425 0.998118807102213 -67.1285723127425 0.0195830520973843 -155.262558944299 
! Gamma         !               0.0154975606208788 30.9791172694808 0.0154975606216704 30.9791172699063 
! Port Impedance50               0                50               0                

1.04             0.0197584289857867 -158.488150653362 0.998062892741649 -68.4445160594189 0.998062892741648 -68.4445160594189 0.019769013656649 -156.529460822245 
! Gamma         !               0.0158078130963715 31.5865509304754 0.0158078130977718 31.5865509312583 
! Port Impedance50               0                50               0                

1.06             0.0199328294117866 -159.720483939405 0.998006345520812 -69.7604508559256 0.99800634552081 -69.7604508559256 0.0199441134560482 -157.794212976168 
! Gamma         !               0.0161167926221687 32.1939845937735 0.0161167926240324 32.193984594845  
! Port Impedance50               0                50               0                

1.08             0.0200962225321032 -160.952299927184 0.997949183044071 -71.0763772238613 0.99794918304407 -71.0763772238613 0.0201082099863142 -159.056763206691 
! Gamma         !               0.0164246726588545 32.8014182590366 0.0164246726610618 32.8014182603367 
! Port Impedance50               0                50               0                

1.1              0.0202484700179381 -162.18348097843 0.99789142262046 -72.3922957094586 0.997891422620459 -72.3922957094586 0.0202611658375005 -160.317053735049 
! Gamma         !               0.0167316057614956 33.4088519259702 0.0167316057639471 33.4088519274483 
! Port Impedance50               0                50               0                

1.12             0.020389437681325 -163.413909806208 0.997833081244286 -73.7082068830518 0.997833081244284 -73.7082068830518 0.0204028477820716 -161.575021031929 
! Gamma         !               0.0170377260463025 34.0162855943215 0.017037726048917 34.0162855959337 
! Port Impedance50               0                50               0                

1.14             0.0205189955513917 -164.643468861362 0.997774175576195 -75.0241113385126 0.997774175576194 -75.0241113385126 0.0205331268571439 -162.830595610758 
! Gamma         !               0.0173431513521968 34.6237192638699 0.0173431513549077 34.6237192655794 
! Port Impedance50               0                50               0                

1.16             0.020637017949701 -165.872039735107 0.997714721924695 -76.3400096926537 0.997714721924694 -76.3400096926536 0.0206518784459054 -164.083701783991 
! Gamma         !               0.0176479851385389 35.2311529344255 0.0176479851412925 35.2311529362    
! Port Impedance50               0                50               0                

1.18             0.020743383564645 -167.09950257063 0.997654736228151 -77.6559025846002 0.99765473622815 -77.6559025846001 0.0207589823582457 -165.334257380454 
! Gamma         !               0.0179523181540989 35.838586605824  0.0179523181568519 35.8385866076369 
! Port Impedance50               0                50               0                

1.2              0.020837975524888 -168.325735476886 0.997594234037271 -78.9717906751277 0.99759423403727 -78.9717906751277 0.0208543229106748 -166.582173421291 
! Gamma         !               0.0182562299071841 36.4460202779227 0.018256229909902 36.4460202797516 
! Port Impedance50               0                50               0                

1.22             0.0209206814718792 -169.550613937956 0.9975332304981  -80.2876746459671 0.997533230498099 -80.2876746459671 0.0209377890055952 -167.827353751504 
! Gamma         !               0.0185597899625096 37.0534539505987 0.0185597899651653 37.0534539524243 
! Port Impedance50               0                50               0                

1.24             0.0209913936314688 -170.774010211367 0.997471740335537 -81.6035551990749 0.997471740335536 -81.6035551990749 0.0210092742100422 -169.069694623518 
! Gamma         !               0.0188630590867652 37.660887623746  0.0188630590893379 37.6608876255528 
! Port Impedance50               0                50               0                

1.26             0.0210500088846908 -171.995792708737 0.997409777837403 -82.9194330558696 0.997409777837401 -82.9194330558696 0.0210686768340365 -170.309084228579 
! Gamma         !               0.0191660902617609 38.268321297273  0.0191660902642348 38.2683212990482 
! Port Impedance50               0                50               0                

1.28             0.0210964288378112 -173.215825351925 0.997347356839064 -84.2353089564336 0.997347356839064 -84.2353089564336 0.0211159000086981 -171.545402171083 
! Gamma         !               0.0194689295814401 38.8757549711013 0.0194689295838037 38.8757549728342 
! Port Impedance50               0                50               0                

1.3              0.0211305598917297 -174.433966897552 0.997284490708661 -85.5511836586794 0.99728449070866 -85.5511836586794 0.0211508517643365 -172.778518880213 
! Gamma         !               0.019771617046848 39.4831886451634 0.0197716170490936 39.4831886468456 
! Port Impedance50               0                50               0                

1.32             0.0211523133109135 -175.650070222363 0.997221192332934 -86.8670579374807 0.997221192332933 -86.8670579374807 0.0211734451087394 -174.008294952353 
! Gamma         !               0.0200741872712722 40.0906223194012 0.020074187273395 40.090622321026  
! Port Impedance50               0                50               0                

1.34             0.0211616052920027 -176.863981561323 0.9971574741037  -88.1829325837686 0.997157474103699 -88.1829325837686 0.0211835981059508 -175.23458041682 
! Gamma         !               0.0203766701061694 40.6980559937661 0.0203766701081667 40.6980559953287 
! Port Impedance50               0                50               0                

1.36             0.0211583570323112 -178.075539689646 0.997093347904992 -89.4988084035918 0.997093347904991 -89.4988084035918 0.0211812339558418 -176.457213916321 
! Gamma         !               0.020679091197132 41.3054896682159 0.0206790911990033 41.3054896697124 
! Port Impedance50               0                50               0                

1.38             0.0211424947984834 -179.28457503908 0.997028825100893 -90.8146862171414 0.997028825100892 -90.8146862171414 0.0211662810748749 -177.676021792289 
! Gamma         !               0.0209814724779673 41.9129233427151 0.0209814724797136 41.912923344143  
! Port Impedance50               0                50               0                

1.4              0.0211139499955658 179.509091262278 0.996963916524095 -92.1305668577405 0.996963916524093 -92.1305668577405 0.0211386731784766 -178.890817063785 
! Gamma         !               0.0212838326099614 42.5203570172343 0.021283832611585 42.5203570185921 
! Port Impedance50               0                50               0                

1.42             0.0210726592368669 178.305648438653 0.996898632465207 -93.4464511707995 0.996898632465207 -93.4464511707995 0.0210983493655218 179.898601713025 
! Gamma         !               0.0215861873725229 43.1277906917484 0.0215861873740273 43.1277906930354 
! Port Impedance50               0                50               0                

1.44             0.0210185644149663 177.105297217256 0.996832982662863 -94.762340012736 0.996832982662863 -94.7623400127359 0.0210452542055226 178.692451719781 
! Gamma         !               0.0218885500106545 43.7352243662365 0.0218885500120436 43.7352243674526 
! Port Impedance50               0                50               0                

1.46             0.0209516127743531 175.908251096287 0.996766976294631 -96.078234249861 0.996766976294631 -96.078234249861 0.0209793378291742 177.490967302452 
! Gamma         !               0.0221909315440439 44.3426580406826 0.0221909315453225 44.3426580418283 
! Port Impedance50               0                50               0                

1.48             0.0208717569862059 174.714737747767 0.996700621968784 -97.3941347572331 0.996700621968782 -97.3941347572331 0.0209005560230299 176.294401569384 
! Gamma         !               0.0224933410420075 44.9500917150725 0.0224933410431806 44.9500917161487 
! Port Impedance50               0                50               0                

1.5              0.020778955225925 173.525000575233 0.996633927716944 -98.7100424174787 0.996633927716944 -98.7100424174787 0.0208088703292026 175.103028183879 
! Gamma         !               0.0227957858680159 45.5575253893946 0.0227957858690886 45.5575253904032 
! Port Impedance50               0                50               0                

1.52             0.0206731712541264 172.339300449412 0.996566900987665 -100.025958119582 0.996566900987665 -100.025958119582 0.020704248151102 173.917143378031 
! Gamma         !               0.0230982718971111 46.1649590636417 0.023098271898089 46.1649590645841 
! Port Impedance50               0                50               0                

1.54             0.0205543745019046 171.157917648562 0.996499548640935 -101.341882757647 0.996499548640935 -101.341882757647 0.0205866628664207 172.737068218826 
! Gamma         !               0.0234008037091441 46.7723927378066 0.0234008037100328 46.772392738685  
! Port Impedance50               0                50               0                

1.56             0.0204225401613227 169.981154034526 0.996431876943683 -102.657817229627 0.996431876943682 -102.657817229627 0.0204560939487269 171.56315116271  
! Gamma         !               0.0237033847604321 47.3798264118846 0.0237033847612371 47.3798264127013 
! Port Impedance50               0                50               0                

1.58             0.0202776492822183 168.809335500699 0.996363891566292 -103.973762436029 0.996363891566291 -103.973762436029 0.0203125270992882 170.395770940872 
! Gamma         !               0.0240060175361452 47.987260085873  0.024006017536872 47.9872600866306 
! Port Impedance50               0                50               0                

1.6              0.0201196888766249 167.64281473425  0.996295597580162 -105.289719278598 0.996295597580161 -105.289719278598 0.0201559543910007 169.235339824793 
! Gamma         !               0.0243087036854826 48.59469375977   0.0243087036861368 48.5946937604705 
! Port Impedance50               0                50               0                

1.62             0.019948652032303 166.481974342452 0.996226999456344 -106.605688658969 0.996226999456342 -106.605688658969 0.0199863744266142 168.082307330289 
! Gamma         !               0.0246114441414663 49.2021274335743 0.024611444142053 49.2021274342207 
! Port Impedance50               0                50               0                

1.64             0.0197645380371669 165.327230401822 0.996158101065285 -107.921671477307 0.996158101065284 -107.921671477307 0.0198037925138669 166.937164428691 
! Gamma         !               0.0249142392269882 49.8095611072865 0.0249142392275124 49.8095611078812 
! Port Impedance50               0                50               0                

1.66             0.0195673525166813 164.179036499693 0.996088905677709 -109.237668630923 0.996088905677708 -109.237668630923 0.0196082208605507 165.800448346383 
! Gamma         !               0.0252170887485705 50.4169947809075 0.0252170887490372 50.4169947814535 
! Port Impedance50               0                50               0                

1.68             0.0193571075867157 163.037888350926 0.996019415966644 -110.553681012876 0.996019415966644 -110.553681012876 0.019399678793159 164.672748049051 
! Gamma         !               0.025519992079142 51.0244284544386 0.0255199920795559 51.0244284549385 
! Port Impedance50               0                50               0                

1.7              0.0191338220248022 161.904329088498 0.995949634010649 -111.869709510563 0.995949634010649 -111.869709510563 0.0191781930034018 163.554710525447 
! Gamma         !               0.0258229482309959 51.6318621278824 0.0258229482313614 51.6318621283386 
! Port Impedance50               0                50               0                

1.72             0.0188975214633202 160.778955346315 0.995879561298233 -113.185755004296 0.995879561298233 -113.185755004296 0.0189437978277437 162.447048007848 
! Gamma         !               0.0261259559199753 52.2392958012411 0.0261259559202964 52.2392958016566 
! Port Impedance50               0                50               0                

1.74             0.0186482386088457 159.662424276658 0.995809198733502 -114.501818365871 0.995809198733502 -114.501818365871 0.0186965355661504 161.350546293806 
! Gamma         !               0.0264290136218182 52.846729474518  0.0264290136220992 52.8467294748948 
! Port Impedance50               0                50               0                

1.76             0.0183860134927799 158.555461674392 0.99573854664305 -115.81790045714 0.995738546643049 -115.81790045714 0.0184364568474636 160.266074367488 
! Gamma         !               0.0267321196215038 53.4541631477156 0.0267321196217482 53.4541631480565 
! Port Impedance50               0                50               0                

1.78             0.0181108937594647 157.458871416935 0.995667604784092 -117.134002128572 0.995667604784092 -117.134002128572 0.0181636210504683 159.194595560351 
! Gamma         !               0.027035272056346 54.0615968208377 0.0270352720565573 54.0615968211452 
! Port Impedance50               0                50               0                

1.8              0.0178229349993583 156.373546474915 0.995596372353876 -118.450124217821 0.995596372353876 -118.450124217821 0.0178780967916003 158.137180542424 
! Gamma         !               0.0273384689535152 54.6690304938876 0.0273384689536969 54.6690304941638 
! Port Impedance50               0                50               0                

1.82             0.0175222011365592 155.300481805992 0.995524848000352 -119.766267548305 0.995524848000352 -119.766267548305 0.0175799624927522 157.095022499448 
! Gamma         !               0.0276417082625862 55.276464166869  0.0276417082627412 55.276464167116  
! Port Impedance50               0                50               0                

1.84             0.0172087648821517 154.240789516785 0.995453029834124 -121.082432927781 0.995453029834123 -121.082432927781 0.0172693070457105 156.069454931245 
! Gamma         !               0.0279449878836598 55.883897839785  0.0279449878837909 55.8838978400054 
! Port Impedance50               0                50               0                

1.86             0.0168827082675811 153.195716769671 0.995380915441667 -122.398621146951 0.995380915441668 -122.398621146951 0.016946230593661 155.061972607422 
! Gamma         !               0.0282483056915437 56.4913315126397 0.0282483056916535 56.4913315128354 
! Port Impedance50               0                50               0                

1.88             0.0165441232758384 152.166667028177 0.995308501899833 -123.714832978066 0.995308501899833 -123.714832978066 0.0166108454551947 154.074256343687 
! Gamma         !               0.0285516595564303 57.0987651854369 0.0285516595565212 57.0987651856097 
! Port Impedance50               0                50               0                

1.9              0.0161931125927661 151.155225384617 0.995235785791597 -125.031069173569 0.995235785791596 -125.031069173569 0.0162632772226312 153.108202423785 
! Gamma         !               0.0288550473614653 57.7061988581793 0.0288550473615396 57.706198858331  
! Port Impedance50               0                50               0                

1.92             0.0158297905067164 150.163188907141 0.995162763223067 -126.347330464747 0.995162763223068 -126.347330464747 0.0159036660746887 152.165957698462 
! Gamma         !               0.0291584670175579 58.3136325308713 0.0291584670176175 58.3136325310037 
! Port Impedance50               0                50               0                

1.94             0.015454283992534 149.19260319462  0.995089429841742 -127.663617560419 0.995089429841742 -127.663617560419 0.0155321683542319 151.249961658114 
! Gamma         !               0.0294619164757523 58.9210662035154 0.0294619164757991 58.9210662036305 
! Port Impedance50               0                50               0                

1.96             0.0150667340260027 148.245806656592 0.995015780855961 -128.979931145656 0.995015780855962 -128.979931145657 0.0151489584757733 150.362997118344 
! Gamma         !               0.0297653937374412 59.5284998761154 0.0297653937374769 59.5284998762146 
! Port Impedance50               0                50               0                

1.98             0.0146672971884314 147.325484468636 0.994941811055575 -130.296271880537 0.994941811055576 -130.296271880537 0.0147542312457653 149.508251602809 
! Gamma         !               0.0300688968626792 60.1359335486745 0.0300688968627054 60.1359335487591 
! Port Impedance50               0                50               0                

2                0.0142561476391475 146.4347347288   0.994867514833767 -131.612640398938 0.994867514833768 -131.612640398938 0.0143482047031024 148.689392089501 
! Gamma         !               0.0303724239768233 60.7433672211955 0.0303724239768414 60.743367221267  
! Port Impedance50               0                50               0                

2.02             0.0138334795581515 145.577150110522 0.994792886210027 -132.929037307374 0.994792886210027 -132.929037307374 0.013931123619781 147.910656551331 
! Gamma         !               0.0306759732757062 61.3508008936815 0.0306759732757174 61.3508008937411 
! Port Impedance50               0                50               0                

2.04             0.0133995101945483 144.756919346414 0.994717918854211 -134.24546318388 0.994717918854211 -134.24546318388 0.0135032638455468 147.176966732763 
! Gamma         !               0.030979543029525 61.9582345661349 0.0309795430295304 61.958234566184  
! Port Impedance50               0                50               0                

2.06             0.0129544837023927 143.978954291121 0.994642606111688 -135.561918576947 0.994642606111689 -135.561918576947 0.0130649377399508 146.494067947808 
! Gamma         !               0.0312831315856107 62.5656682385591 0.0312831315856114 62.5656682385988 
! Port Impedance50               0                50               0                

2.08             0.0124986760096103 143.249050252572 0.994566941029496 -136.87840400451 0.994566941029497 -136.87840400451 0.0126165010168867 145.868703478849 
! Gamma         !               0.0315867373702263 63.1731019109561 0.0315867373702232 63.1731019109873 
! Port Impedance50               0                50               0                

2.1              0.012032401055873 142.574089969294 0.994490916383484 -138.194919952993 0.994490916383484 -138.194919952993 0.0121583614396036 145.308833561466 
! Gamma         !               0.0318903588895218 63.7805355833283 0.0318903588895157 63.7805355833521 
! Port Impedance50               0                50               0                

2.12             0.0115560188637668 141.962305368253 0.994414524706383 -139.511466876414 0.994414524706383 -139.511466876414 0.0116909899616071 144.823912174533 
! Gamma         !               0.0321939947297675 64.3879692556779 0.032193994729759 64.3879692556953 
! Port Impedance50               0                50               0                

2.14             0.0110699460928992 141.423616532564 0.994337758316767 -140.828045195554 0.994337758316767 -140.828045195554 0.011214935130446 144.425239205018 
! Gamma         !               0.0324976435569669 64.9954029280076 0.0324976435569567 64.9954029280191 
! Port Impedance50               0                50               0                

2.16             0.0105746699972075 140.970074832535 0.994260609348834 -142.14465529719 0.994260609348835 -142.14465529719 0.0107308418856241 144.126411391676 
! Gamma         !               0.0328013041159446 65.6028366003186 0.0328013041159333 65.6028366003252 
! Port Impedance50               0                50               0                

2.18             0.0100707671062564 140.616447940774 0.99418306978296 -143.461297533402 0.99418306978296 -143.461297533402 0.0102394763313977 143.943903212206 
! Gamma         !               0.0331049752289906 66.210270272613  0.0331049752289785 66.2102702726156 
! Port Impedance50               0                50               0                

2.2              0.0095589285519861 140.380999940294 0.994105131476967 -144.777972220945 0.994105131476968 -144.777972220945 0.00974175871195542 143.897819016964 
! Gamma         !               0.033408655794135 66.8177039448929 0.0334086557941227 66.8177039448919 
! Port Impedance50               0                50               0                

2.22             0.00903999487543527 140.286542052652 0.994026786198055 -146.094679640696 0.994026786198055 -146.094679640696 0.00923880775124868 144.012870493577 
! Gamma         !               0.0337123447831193 67.4251376171598 0.033712344783107 67.4251376171558 
! Port Impedance50               0                50               0                

2.24             0.00851500455365495 140.36186153433  0.993948025655302 -147.411420037182 0.993948025655302 -147.411420037182 0.00873200087125793 144.319648524097 
! Gamma         !               0.0340160412391196 68.0325712894149 0.0340160412391076 68.0325712894084 
! Port Impedance50               0                50               0                

2.26             0.00798526267559135 140.643681528477 0.993868841532715 -148.72819361818 0.993868841532716 -148.72819361818 0.00822305674438494 144.856273231941 
! Gamma         !               0.0343197442742748 68.6400049616597 0.0343197442742634 68.6400049616513 
! Port Impedance50               0                50               0                

2.28             0.00745243963175519 141.179366191368 0.993789225522731 -150.045000554396 0.993789225522732 -150.045000554396 0.00771414937654896 145.67051311575  
! Gamma         !               0.0346234530670639 69.2474386338958 0.0346234530670533 69.2474386338859 
! Port Impedance50               0                50               0                

2.3              0.0069187150891053 142.030661892106 0.993709169360112 -151.361840979229 0.993709169360113 -151.361840979229 0.00720806663138183 146.822444658166 
! Gamma         !               0.0349271668595704 69.8548723061239 0.0349271668595607 69.8548723061129 
! Port Impedance50               0                50               0                

2.32             0.00638699095111889 143.278838632656 0.993628664856175 -152.678714988618 0.993628664856176 -152.678714988618 0.00670843069693566 148.387632988642 
! Gamma         !               0.0352308849546702 70.4623059783455 0.0352308849546615 70.4623059783337 
! Port Impedance50               0                50               0                

2.34             0.00586120970996308 145.031596436056 0.993547703933281 -153.995622640963 0.993547703933282 -153.995622640963 0.00622000243061134 150.460553577613 
! Gamma         !               0.0355346067131709 71.0697396505615 0.0355346067131633 71.0697396505494 
! Port Impedance50               0                50               0                

2.36             0.0053468320966983 147.431815744925 0.993466278659516 -155.312563957145 0.993466278659517 -155.312563957145 0.0057490921345157 153.157344172747 
! Gamma         !               0.0358383315509305 71.6771733227726 0.0358383315509242 71.6771733227603 
! Port Impedance50               0                50               0                

2.38             0.00485154620177991 150.667076496182 0.9933843812835  -156.629538920618 0.9933843812835  -156.629538920618 0.00530408605853315 156.615620267505 
! Gamma         !               0.0361420589359758 72.2846069949798 0.0361420589359707 72.2846069949676 
! Port Impedance50               0                50               0                

2.4              0.00438627847604452 154.975441489259 0.993302004269251 -157.946547477593 0.993302004269251 -157.946547477593 0.00489604761618501 160.986559108996 
! Gamma         !               0.0364457883856408 72.892040667184  0.0364457883856368 72.8920406671721 
! Port Impedance50               0                50               0                

2.42             0.00396648541737242 160.634597920126 0.993219140331043 -159.263589537307 0.993219140331043 -159.263589537308 0.00453922270531601 166.410838535769 
! Gamma         !               0.0367495194637417 73.4994743393855 0.0367495194637389 73.4994743393742 
! Port Impedance50               0                50               0                

2.44             0.00361334840413906 167.905870699937 0.993135782468184 -160.580664972381 0.993135782468186 -160.580664972381 0.00425102737318389 172.968058971012 
! Gamma         !               0.037053251777802 74.1069080115853 0.0370532517778005 74.1069080115746 
! Port Impedance50               0                50               0                

2.46             0.00335362367110261 176.892655122462 0.993051923999664 -161.897773619256 0.993051923999665 -161.897773619256 0.00405079049557127 -179.401981863673 
! Gamma         !               0.0373569849763391 74.7143416837837 0.0373569849763388 74.7143416837737 
! Port Impedance50               0                50               0                

2.48             0.00321580279026611 -172.682509997928 0.992967558598572 -163.214915278721 0.992967558598574 -163.214915278721 0.00395657048248221 -170.976097390531 
! Gamma         !               0.0376607187462219 75.3217753559813 0.0376607187462228 75.3217753559722 
! Port Impedance50               0                50               0                

2.5              0.00322121361491944 -161.613617995953 0.992882680326272 -164.532089716529 0.992882680326273 -164.532089716529 0.00398045758158961 -162.251210531659 
! Gamma         !               0.0379644528101082 75.9292090281784 0.0379644528101101 75.9292090281703 
! Port Impedance50               0                50               0                

2.52             0.00337440714155853 -150.988860454063 0.992797283666226 -165.849296664093 0.992797283666226 -165.849296664093 0.00412468744579416 -153.82084198343 
! Gamma         !               0.0382681869239664 76.5366427003754 0.0382681869239694 76.5366427003683 
! Port Impedance50               0                50               0                

2.54             0.00366156704797068 -141.689313940099 0.992711363557429 -167.166535819267 0.99271136355743 -167.166535819267 0.00438131775376584 -146.183274736361 
! Gamma         !               0.0385719208746885 77.1440763725727 0.0385719208746924 77.1440763725667 
! Port Impedance50               0                50               0                

2.56             0.00405845771416171 -134.088766605747 0.992624915427396 -168.48380684721 0.992624915427396 -168.483806847211 0.00473563756661292 -139.617128551468 
! Gamma         !               0.0388756544777955 77.7515100447705 0.0388756544778003 77.7515100447658 
! Port Impedance50               0                50               0                

2.58             0.00453994747939179 -128.13857679567 0.992537935224627 -169.801109381343 0.992537935224627 -169.801109381343 0.00517073384985456 -134.184002362784 
! Gamma         !               0.0391793875752406 78.3589437169692 0.0391793875752461 78.3589437169656 
! Port Impedance50               0                50               0                

2.6              0.00508513328778582 -123.59353874773 0.992450419450513 -171.118443024367 0.992450419450514 -171.118443024367 0.00567080212426908 -129.80503244268 
! Gamma         !               0.0394831200333087 78.9663773891689 0.039483120033315 78.9663773891664 
! Port Impedance50               0                50               0                

2.62             0.00567834859657981 -120.172690007992 0.992362365190617 -172.435807349387 0.992362365190618 -172.435807349387 0.00622261789819546 -126.339773177422 
! Gamma         !               0.0397868517406161 79.5738110613698 0.0397868517406231 79.5738110613685 
! Port Impedance50               0                50               0                

2.64             0.00630834699850779 -117.628647329382 0.99227377014527 -173.753201901096 0.992273770145271 -173.753201901096 0.00681574200406009 -123.637006404564 
! Gamma         !               0.0400905826062075 80.1812447335719 0.0400905826062151 80.1812447335718 