! Touchstone file exported from HFSS 2018.2.0
!        File:           C:/Users/10024/OneDrive - The University of Nottingham Ningbo China/Year 4/Final Year Project/HFSS project/Passive_Resonator_Antenna.aedt
!        Generated:      11:26:03 上午  3月 12, 2022
!        Design:         SMA_Thru
!        Project:        Passive_Resonator_Antenna
!        Setup:          Setup1
!        Solution:       Sweep
!
! Variables:
!        MW = 1.992mm
!        ThruL = 1mm
!        g = 0.2mm
!        subH = 0.8mm
!        subX = 20mm
!        subY = 11mm
!        tapW = 1.992mm
!
# GHZ S MA R 50.000000
! Modal data exported
! Port[1] = SMA_CONNECTOR1_1:1
! Port[2] = SMA_CONNECTOR2_1:1
1                0.01889101957305 -134.17740329901 0.999158509069104 -43.208860037113 0.999158509069101 -43.2088600371129 0.0188893814266108 -132.605773399444 
! Gamma         !               0.0151858380091092 30.3716836111863 0.0151858380091321 30.371683611183  
! Port Impedance50               0                50               0                

1.02             0.0192207796046655 -135.006328477169 0.999133846330311 -44.0731438578754 0.999133846330309 -44.0731438578754 0.0192193783111974 -133.457411704584 
! Gamma         !               0.0155579197762189 30.9791171464402 0.0155579197765613 30.9791171465805 
! Port Impedance50               0                50               0                

1.04             0.0195476716979036 -135.835888570023 0.999108808857195 -44.9374340875608 0.999108808857193 -44.9374340875608 0.0195465082595012 -134.30862497131 
! Gamma         !               0.0159220250622806 31.5865507002513 0.0159220250628844 31.5865507005165 
! Port Impedance50               0                50               0                

1.06             0.0198716372057867 -136.666027935815 0.999083401275948 -45.8017309009359 0.999083401275947 -45.8017309009359 0.0198707128560099 -135.159415575796 
! Gamma         !               0.0162789101512128 32.1939842704595 0.0162789101520283 32.1939842708336 
! Port Impedance50               0                50               0                

1.08             0.020192617437508 -137.49669474425 0.999057628181248 -46.6660344787675 0.999057628181247 -46.6660344787675 0.0201919336270757 -136.009785349338 
! Gamma         !               0.0166292578922158 32.8014178551704 0.0166292578932006 32.8014178556396 
! Port Impedance50               0                50               0                

1.1              0.0205105536615668 -138.327840611427 0.99903149413501 -47.5303450079852 0.999031494135008 -47.5303450079852 0.020510112045556 -136.859735607465 
! Gamma         !               0.0169736856649863 33.4088514527195 0.0169736856661046 33.4088514532702 
! Port Impedance50               0                50               0                

1.12             0.0208253871092597 -139.159420272747 0.999005003665208 -48.3946626818346 0.999005003665206 -48.3946626818346 0.0208251895356792 -137.709267174835 
! Gamma         !               0.0173127523612555 34.0162850616394 0.0173127523624768 34.0162850622602 
! Port Impedance50               0                50               0                

1.14             0.0211370589785177 -139.991391289253 0.998978161264752 -49.2589877000205 0.998978161264751 -49.2589877000205 0.0211371074781252 -138.558380406457 
! Gamma         !               0.0176469645193507 34.6237186806366 0.017646964520649 34.6237186813173 
! Port Impedance50               0                50               0                

1.16             0.0214455104380574 -140.82371378336 0.998950971390409 -50.1233202688407 0.998950971390407 -50.1233202688407 0.0214458072153249 -139.407075205686 
! Gamma         !               0.0179767817274541 35.2311523085665 0.0179767817288072 35.2311523092982 
! Port Impedance50               0                50               0                

1.18             0.0217506826318378 -141.656350200498 0.998923438461747 -50.9876606013113 0.998923438461747 -50.9876606013113 0.0217512300569618 -140.255351039445 
! Gamma         !               0.0183026213937374 35.8385859444153 0.0183026213951268 35.8385859451895 
! Port Impedance50               0                50               0                

1.2              0.0220525166837943 -142.489265093727 0.998895566860125 -51.8520089172827 0.998895566860124 -51.8520089172827 0.0220533172856755 -141.103206950957 
! Gamma         !               0.0186248629669509 36.446019587285  0.018624862968361 36.4460195880944 
! Port Impedance50               0                50               0                

1.22             0.0223509537028508 -143.322424928632 0.99886736092766 -52.7163654435476 0.998867360927659 -52.7163654435476 0.0223520101629671 -141.95064157034 
! Gamma         !               0.0189438516788179 37.0534532363757 0.0189438516802352 37.0534532372141 
! Port Impedance50               0                50               0                

1.24             0.0226459347881852 -144.155797906303 0.998838824966228 -53.5807304139403 0.998838824966226 -53.5807304139403 0.0226472499352934 -142.797653123286 
! Gamma         !               0.0192599018693086 37.6608868909774 0.0192599018707222 37.6608868918386 
! Port Impedance50               0                50               0                

1.26             0.0229374010347409 -144.989353802338 0.998809963236443 -54.4451040694289 0.998809963236441 -54.4451040694289 0.0229389778403477 -143.644239438057 
! Gamma         !               0.0195732999472212 38.2683205504564 0.0195732999486218 38.2683205513354 
! Port Impedance50               0                50               0                

1.28             0.0232252935389681 -145.823063820158 0.998780779956629 -55.3094866581996 0.998780779956629 -55.3094866581995 0.0232271351135232 -144.490397950981 
! Gamma         !               0.0198843070311784 38.8757542142482 0.0198843070325584 38.8757542151402 
! Port Impedance50               0                50               0                

1.3              0.0235095534047889 -146.656900457103 0.99875127930177 -56.1738784357337 0.998751279301769 -56.1738784357336 0.0235116629945522 -145.33612571062 
! Gamma         !               0.020193161309954 39.4831878818486 0.020193161311307 39.4831878827498 
! Port Impedance50               0                50               0                

1.32             0.0237901217497714 -147.49083738192 0.998721465402429 -57.0382796648788 0.998721465402429 -57.0382796648787 0.0237925027343123 -146.181419380722 
! Gamma         !               0.0205000801557808 40.0906215528063 0.0205000801571019 40.0906215537127 
! Port Impedance50               0                50               0                

1.34             0.0240669397115077 -148.32484932249 0.998691342343646 -57.9026906159121 0.998691342343646 -57.902690615912 0.024069595601802 -147.026275242121 
! Gamma         !               0.0208052620198036 40.6980552267189 0.0208052620210887 40.6980552276271 
! Port Impedance50               0                50               0                

1.36             0.0243399484541786 -149.158911962693 0.998660914163778 -58.7671115665988 0.998660914163778 -58.7671115665987 0.0243428828912671 -147.870689193622 
! Gamma         !               0.0211088881350154 41.3054889032244 0.0211088881362612 41.3054889041317 
! Port Impedance50               0                50               0                

1.38             0.0246090891753044 -149.993001847508 0.99863018485332 -59.6315428022439 0.99863018485332 -59.6315428022438 0.0246123059294887 -148.714656752009 
! Gamma         !               0.021411124048731 41.9129225819994 0.0214111240499349 41.9129225829034 
! Port Impedance50               0                50               0                

1.4              0.0248743031126683 -150.827096295479 0.998599158353658 -60.4959846157386 0.998599158353658 -60.4959846157386 0.0248778060832144 -149.558173051218 
! Gamma         !               0.0217121210038435 42.5203562627542 0.0217121210050039 42.5203562636525 
! Port Impedance50               0                50               0                

1.42             0.0251355315514047 -151.661173317815 0.99856783855578 -61.3604373076018 0.998567838555779 -61.3604373076017 0.0251393247667258 -150.401232840728 
! Gamma         !               0.0220120171856882 43.1277899452285 0.0220120171868038 43.1277899461188 
! Port Impedance50               0                50               0                

1.44             0.0253927158312461 -152.495211543454 0.99853622929893 -62.2249011860156 0.998536229298929 -62.2249011860155 0.0253968034495547 -151.24383048324 
! Gamma         !               0.022310938849248 43.7352236291882 0.0223109388503179 43.7352236300692 
! Port Impedance50               0                50               0                

1.46             0.0256457973539178 -153.329190149484 0.998504334369205 -63.0893765668574 0.998504334369205 -63.0893765668573 0.0256501836643171 -152.085959951657 
! Gamma         !               0.0226090013396393 44.3426573144248 0.0226090013406631 44.3426573152948 
! Port Impedance50               0                50               0                

1.48             0.0258947175906821 -154.163088796394 0.998472157498087 -63.9538637737262 0.998472157498085 -63.9538637737261 0.0258994070146794 -152.927614825395 
! Gamma         !               0.0229063100172514 44.9500910007495 0.0229063100182292 44.9500910016069 
! Port Impedance50               0                50               0                

1.5              0.0261394180900064 -154.996887567642 0.998439702360915 -64.8183631379651 0.998439702360915 -64.818363137965 0.0261444151834482 -153.768788286069 
! Gamma         !               0.0232029610975619 45.5575246879937 0.0232029610984936 45.5575246888377 
! Port Impedance50               0                50               0                

1.52             0.0263798404853724 -155.830566913143 0.998406972575292 -65.68287499868  0.998406972575292 -65.6828749986799 0.0263851499407626 -154.609473112531 
! Gamma         !               0.0234990424144722 46.1649583760059 0.0234990424153586 46.1649583768354 
! Port Impedance50               0                50               0                

1.54             0.026615926503205 -156.664107596223 0.998373971699422 -66.5473997027532 0.998373971699422 -66.5473997027531 0.0266215531524123 -155.449661675294 
! Gamma         !               0.0237946341149857 46.7723920646499 0.0237946341158273 46.7723920654639 
! Port Impedance50               0                50               0                

1.56             0.0268476179709142 -157.497490643729 0.998340703230376 -67.4119376048545 0.998340703230375 -67.4119376048544 0.0268535667882516 -156.289345930329 
! Gamma         !               0.0240898092921515 47.379825753804  0.0240898092929492 47.3798257546021 
! Port Impedance50               0                50               0                

1.58             0.0270748568250521 -158.330697298922 0.998307170602294 -68.2764890674477 0.998307170602293 -68.2764890674476 0.0270811329307156 -157.128517412239 
! Gamma         !               0.024384634562423 47.9872594433589 0.0243846345631778 47.9872594441401 
! Port Impedance50               0                50               0                

1.6              0.0272975851195774 -159.163708976876 0.998273377184513 -69.1410544607941 0.998273377184513 -69.141054460794 0.027304193783441 -157.967167226791 
! Gamma         !               0.0246791705928865 48.5946931332164 0.0246791705935995 48.5946931339805 
! Port Impedance50               0                50               0                

1.62             0.027515745034221 -159.996507222092 0.998239326279623 -70.0056341629519 0.998239326279623 -70.0056341629518 0.0275226916799694 -158.805286042798 
! Gamma         !               0.024973472583225 49.2021268232893 0.0249734725838972 49.2021268240359 
! Port Impedance50               0                50               0                

1.64             0.0277292788829431 -160.829073668071 0.998205021121449 -70.8702285597729 0.998205021121449 -70.8702285597728 0.0277365690925513 -159.642864083332 
! Gamma         !               0.0252675907067444 49.8095605134989 0.0252675907073773 49.8095605142274 
! Port Impedance50               0                50               0                

1.66             0.0279381291224921 -161.661389998615 0.998170464872963 -71.7348380448955 0.998170464872963 -71.7348380448954 0.0279457686410267 -160.479891116243 
! Gamma         !               0.0255615705143337 50.4169942037756 0.0255615705149284 50.4169942044861 
! Port Impedance50               0                50               0                

1.68             0.0281422383610446 -162.493437910624 0.998135660624122 -72.5994630197347 0.998135660624122 -72.5994630197347 0.0281502331017993 -161.316356443958 
! Gamma         !               0.0258554533048147 51.0244278940567 0.0258554533053727 51.024427894749  
! Port Impedance50               0                50               0                

1.7              0.0283415493669379 -163.325199078199 0.998100611389632 -73.4641038934687 0.998100611389632 -73.4641038934686 0.0283499054168846 -162.152248892533 
! Gamma         !               0.0261492764647804 51.6318615842872 0.0261492764653029 51.6318615849612 
! Port Impedance50               0                50               0                

1.72             0.0285360050774763 -164.156655117837 0.998065320106646 -74.328761083022 0.998065320106645 -74.3287610830219 0.0285447287030391 -162.987556799913 
! Gamma         !               0.0264430737806954 52.2392952744179 0.0264430737811839 52.2392952750735 
! Port Impedance50               0                50               0                

1.74             0.0287255486078248 -164.987787554562 0.998029789632376 -75.1934350130463 0.998029789632376 -75.1934350130462 0.0287346462609716 -163.822268003382 
! Gamma         !               0.0267368757257559 52.8467289644054 0.0267368757262117 52.8467289650427 
! Port Impedance50               0                50               0                

1.76             0.0289101232599808 -165.818577788793 0.997994022741652 -76.0581261158971 0.997994022741651 -76.058126115897 0.0289196015846202 -164.656369826133 
! Gamma         !               0.0270307097237485 53.4541626542109 0.0270307097241731 53.4541626548298 
! Port Impedance50               0                50               0                

1.78             0.0290896725318152 -166.649007063807 0.99795802212439 -76.9228348316079 0.99795802212439 -76.9228348316078 0.0290995383705149 -165.48984906294 
! Gamma         !               0.0273246003919273 54.0615963438012 0.0273246003923221 54.0615963444019 
! Port Impedance50               0                50               0                

1.8              0.0292641401261928 -167.479056433633 0.997921790383009 -77.7875616078606 0.99792179038301 -77.7875616078605 0.0292744005272098 -166.32269196487 
! Gamma         !               0.0276185697647319 54.6690300331466 0.0276185697650981 54.6690300337292 
! Port Impedance50               0                50               0                

1.82             0.0294334699601694 -168.308706731223 0.997885330029768 -78.652306899953 0.997885330029767 -78.652306899953 0.0294441321847898 -167.154884222967 
! Gamma         !               0.027912637499986 55.2764637222216 0.0279126375003251 55.2764637227863 
! Port Impedance50               0                50               0                

1.84             0.0295976061742564 -169.137938536762 0.997848643484029 -79.5170711707631 0.997848643484029 -79.517071170763 0.0296086777044541 -167.986410950892 
! Gamma         !               0.0282068210690662 55.8838974110036 0.0282068210693794 55.8838974115505 
! Port Impedance50               0                50               0                

1.86             0.0297564931417675 -169.96673214597 0.997811733069472 -80.3818548907091 0.997811733069472 -80.381854890709 0.0297679816881791 -168.817256666402 
! Gamma         !               0.028501135932382 56.4913310994739 0.0285011359326706 56.4913311000036 
! Port Impedance50               0                50               0                

1.88             0.0299100754782274 -170.79506753826 0.99777460101123 -81.246658537707 0.99777460101123 -81.2466585377069 0.0299219889884504 -169.647405271654 
! Gamma         !               0.0287955957013889 57.0987647876167 0.0287955957016543 57.0987647881289 
! Port Impedance50               0                50               0                

1.9              0.0300582980508752 -171.622924344623 0.997737249432961 -82.1114825971244 0.997737249432961 -82.1114825971243 0.0300706447180876 -170.476840032225 
! Gamma         !               0.0290902122882378 57.7061984754176 0.029090212288481 57.7061984759129 
! Port Impedance50               0                50               0                

1.92             0.0302011059882307 -172.450281815087 0.997699680353866 -82.9763275617298 0.997699680353866 -82.9763275617297 0.0302138942601436 -171.305543554792 
! Gamma         !               0.0293849960440651 58.3136321628659 0.0293849960442874 58.3136321633446 
! Port Impedance50               0                50               0                

1.94             0.0303384446897443 -173.277118785637 0.997661895685639 -83.8411939316394 0.997661895685639 -83.8411939316393 0.0303516832778933 -172.133497763387 
! Gamma         !               0.029679955886839 58.9210658499523 0.0296799558870416 58.9210658504148 
! Port Impedance50               0                50               0                

1.96             0.0304702598355394 -174.103413644445 0.997623897229357 -84.7060822142593 0.997623897229357 -84.7060822142592 0.0304839577249161 -172.960683874133 
! Gamma         !               0.0299750994195905 59.5284995366698 0.0299750994197744 59.5284995371162 
! Port Impedance50               0                50               0                

1.98             0.0305964973962306 -174.929144297283 0.997585686672325 -85.5709929242238 0.997585686672325 -85.5709929242237 0.0306106638552731 -173.787082368381 
! Gamma         !               0.0302704330397894 60.1359332230129 0.0302704330399558 60.1359332234435 
! Port Impedance50               0                50               0                

2                0.0307171036428439 -175.754288131982 0.997547265584854 -86.4359265833298 0.997547265584855 -86.4359265833297 0.0307317482337812 -174.612672964134 
! Gamma         !               0.0305659620405562 60.7433669089775 0.0305659620407062 60.7433669093928 
! Port Impedance50               0                50               0                

2.02             0.030832025156827 -176.578821981778 0.997508635416992 -87.3008837204668 0.997508635416992 -87.3008837204667 0.0308471577464079 -175.437434585663 
! Gamma         !               0.0308616907043412 61.3508005945615 0.0308616907044757 61.3508005949616 
! Port Impedance50               0                50               0                

2.04             0.0309412088401667 -177.402722087438 0.997469797495203 -88.165864871543 0.997469797495203 -88.1658648715429 0.0309568396107656 -176.261345331193 
! Gamma         !               0.0311576223896487 61.9582342797633 0.0311576223897686 61.9582342801488 
! Port Impedance50               0                50               0                

2.06             0.0310446019256161 -178.22596405797 0.997430753019005 -89.0308705794064 0.997430753019005 -89.0308705794063 0.0310607413867444 -177.084382438547 
! Gamma         !               0.0314537596113363 62.5656679645834 0.0314537596114427 62.5656679649545 
! Port Impedance50               0                50               0                

2.08             0.0311421519870385 -179.048522829803 0.997391503057552 -89.8959013937619 0.997391503057552 -89.8959013937618 0.0311588109872685 -177.906522248606 
! Gamma         !               0.0317501041149723 63.173101649022  0.0317501041150659 63.1731016493792 
! Port Impedance50               0                50               0                

2.1              0.0312338069498715 -179.870372624254 0.997352048546185 -90.760957871083 0.997352048546185 -90.760957871083 0.031250996689199 -178.727740166445 
! Gamma         !               0.0320466569456959 63.7805353330819 0.0320466569457777 63.7805353334254 
! Port Impedance50               0                50               0                

2.12             0.0313195151017379 179.308513096878 0.997312390282936 -91.6260405745195 0.997312390282937 -91.6260405745195 0.0313372471443831 -179.548010620012 
! Gamma         !               0.0323434185119902 64.3879690167653 0.0323434185120609 64.3879690170955 
! Port Impedance50               0                50               0                

2.14             0.0313992251031876 178.488161677772 0.997272528925   -92.4911500737996 0.997272528925   -92.4911500737995 0.0314175113908822 179.632692983838 
! Gamma         !               0.0326403886447394 64.9954027000759 0.0326403886447999 64.9954027003931 
! Port Impedance50               0                50               0                

2.16             0.0314728859986037 177.668601317276 0.99723246498517 -93.3562869451272 0.99723246498517 -93.3562869451271 0.0314917388643636 178.814398306106 
! Gamma         !               0.0329375666519194 65.6028363830179 0.0329375666519705 65.6028363833226 
! Port Impedance50               0                50               0                

2.18             0.0315404472272705 176.849861120035 0.997192198828243 -94.2214517710738 0.997192198828243 -94.2214517710737 0.0315598794096929 177.997134125415 
! Gamma         !               0.0332349513692358 66.2102700655959 0.0332349513692781 66.2102700658882 
! Port Impedance50               0                50               0                

2.2              0.0316018586346301 176.031971150255 0.997151730667403 -95.0866451404656 0.997151730667403 -95.0866451404655 0.0316218832927335 177.180930390954 
! Gamma         !               0.0335325412070035 66.817703747815  0.0335325412070376 66.8177037480956 
! Port Impedance50               0                50               0                

2.22             0.0316570704837216 175.214962488325 0.997111060560571 -95.9518676482642 0.99711106056057 -95.9518676482642 0.0316777012123601 176.365818278853 
! Gamma         !               0.0338303341935379 67.4251374296812 0.0338303341935646 67.4251374299501 
! Port Impedance50               0                50               0                

2.24             0.0317060334668399 174.39886729054  0.997070188406742 -96.817119895443 0.997070188406742 -96.8171198954429 0.0317272843127339 175.551830252185 
! Gamma         !               0.034128328015307 68.0325711112004 0.0341283280153269 68.0325711114581 
! Port Impedance50               0                50               0                

2.26             0.0317486987174155 173.583718852161 0.997029113942307 -97.6824024888562 0.997029113942307 -97.6824024888561 0.0317705841958186 174.73900012488  
! Gamma         !               0.0344265200540728 68.640004792379  0.0344265200540864 68.6400047926258 
! Port Impedance50               0                50               0                

2.28             0.0317850178221414 172.7695516741   0.996987836737353 -98.5477160411038 0.996987836737353 -98.5477160411037 0.0318075529341887 173.927363129802 
! Gamma         !               0.0347249074212367 69.2474384732239 0.0347249074212445 69.2474384734601 
! Port Impedance50               0                50               0                

2.3              0.0318149428333598 171.956401533494 0.996946356191959 -99.4130611703894 0.996946356191959 -99.4130611703894 0.0318381430841429 173.116955991295 
! Gamma         !               0.0350234869895852 69.8548721537418 0.0350234869895879 69.8548721539679 
! Port Impedance50               0                50               0                

2.32             0.0318384262817373 171.144305558502 0.996904671532488 -100.278438500373 0.996904671532488 -100.278438500373 0.0318623076991449 172.307817002508 
! Gamma         !               0.0353222554226175 70.4623058339398 0.0353222554226154 70.4623058341561 
! Port Impedance50               0                50               0                

2.34             0.0318554211892448 170.333302307645 0.99686278180787 -101.143848660016 0.99686278180787 -101.143848660016 0.0318800003436165 171.499986107862 
! Gamma         !               0.0356212092016239 71.0697395138257 0.0356212092016175 71.0697395140324 
! Port Impedance50               0                50               0                

2.36             0.0318658810824636 169.523431854042 0.996820685885897 -102.009292283422 0.996820685885896 -102.009292283422 0.0318911751071199 170.69350499101  
! Gamma         !               0.0359203446506727 71.6771731934064 0.0359203446506625 71.6771731936039 
! Port Impedance50               0                50               0                

2.38             0.0318697600062572 168.714735874954 0.996778382449511 -102.874770009671 0.996778382449511 -102.874770009671 0.0318957866189514 169.888417168717 
! Gamma         !               0.0362196579596498 72.2846068726897 0.0362196579596363 72.2846068728782 
! Port Impedance50               0                50               0                

2.4              0.0318670125378201 167.907257747035 0.996735869993118 -103.740282482644 0.996735869993118 -103.740282482644 0.0318937900631797 169.084768091084 
! Gamma         !               0.0365191452054854 72.8920405516834 0.0365191452054689 72.8920405518632 
! Port Impedance50               0                50               0                

2.42             0.0318575938011469 167.101042647751 0.996693146818899 -104.605830350849 0.996693146818899 -104.605830350849 0.0318851411941721 168.282605248619 
! Gamma         !               0.0368188023716948 73.4994742303949 0.0368188023716756 73.4994742305664 
! Port Impedance50               0                50               0                

2.44             0.0318414594819499 166.296137663465 0.99665021103315 -105.471414267228 0.99665021103315 -105.471414267228 0.0318697963526403 167.48197828665  
! Gamma         !               0.0371186253663477 74.106907908832  0.0371186253663262 74.1069079089954 
! Port Impedance50               0                50               0                

2.46             0.0318185658430511 165.492591904734 0.996607060542647 -106.337034888971 0.996607060542645 -106.337034888971 0.0318477124822424 166.682939127659 
! Gamma         !               0.0374186100385761 74.7143415870026 0.0374186100385526 74.7143415871582 
! Port Impedance50               0                50               0                

2.48             0.0317888697403089 164.690456629376 0.99656369305102 -107.202692877315 0.99656369305102 -107.202692877315 0.0318188471468041 165.885542102176 
! Gamma         !               0.0377187521937202 75.3217752649141 0.037718752193695 75.3217752650622 
! Port Impedance50               0                50               0                

2.5              0.0317523286391023 163.889785373974 0.996520106055188 -108.068388897337 0.996520106055187 -108.068388897337 0.0317831585481855 165.089844088868 
! Gamma         !               0.0380190476072066 75.9292089425743 0.03801904760718 75.9292089427151 
! Port Impedance50               0                50               0                

2.52             0.0317089006314184 163.090634094499 0.996476296841793 -108.934123617743 0.996476296841794 -108.934123617743 0.0317406055448635 164.295904664598 
! Gamma         !               0.0383194920372469 76.536642619991  0.0383194920372191 76.5366426201249 
! Port Impedance50               0                50               0                

2.54             0.0316585444536052 162.293061316803 0.996432262483709 -109.799897710651 0.996432262483709 -109.799897710651 0.0316911476712779 163.503786265244 
! Gamma         !               0.0386200812364365 77.1440762971714 0.0386200812364077 77.1440762972987 
! Port Impedance50               0                50               0                

2.56             0.0316012195048245 161.497128297828 0.996387999836562 -110.665711851361 0.996387999836562 -110.665711851361 0.0316347451580046 162.713554358155 
! Gamma         !               0.0389208109623312 77.7515099741234 0.0389208109623018 77.7515099742441 
! Port Impedance50               0                50               0                

2.58             0.0315368858662842 160.702899198434 0.996343505535329 -111.531566718125 0.996343505535328 -111.531566718125 0.0315713589528271 161.925277627223 
! Gamma         !               0.0392216769870713 78.3589436508543 0.0392216769870414 78.3589436509688 
! Port Impedance50               0                50               0                

2.6              0.0314655043212864 159.910441268831 0.996298775990964 -112.39746299191 0.996298775990964 -112.39746299191 0.0315009507427762 161.139028171627 
! Gamma         !               0.03952267510612 78.9663773273712 0.0395226751060898 78.9663773274798 
! Port Impedance50               0                50               0                

2.62             0.0313870363761814 159.119825047737 0.9962538073871  -113.263401356146 0.9962538073871  -113.263401356146 0.0314234829772169 160.354881719402 
! Gamma         !               0.0398238011461767 79.5738110036816 0.0398238011461464 79.5738110037844 
! Port Impedance50               0                50               0                

2.64             0.0313014442822917 158.331124576419 0.996208595676799 -114.12938249648 0.996208595676799 -114.12938249648 0.0313389188920817 159.57291785712  
! Gamma         !               0.0401250509723246 80.1812446797924 0.0401250509722943 80.1812446798896 