! Touchstone file exported from HFSS 2018.2.0
!        File:           C:/Users/10024/OneDrive - The University of Nottingham Ningbo China/Year 4/Final Year Project/HFSS project/Passive_Resonator_Antenna.aedt
!        Generated:      11:26:55 上午  3月 12, 2022
!        Design:         SMA_Thru
!        Project:        Passive_Resonator_Antenna
!        Setup:          Setup1
!        Solution:       Sweep
!
! Variables:
!        MW = 1.992mm
!        ThruL = 21mm
!        g = 0.2mm
!        subH = 0.8mm
!        subX = 20mm
!        subY = 31mm
!        tapW = 1.992mm
!
# GHZ S MA R 50.000000
! Modal data exported
! Port[1] = SMA_CONNECTOR1_1:1
! Port[2] = SMA_CONNECTOR2_1:1
1                0.0211659228060726 -169.357718211749 0.997393384346645 -80.9271268910308 0.997393384346647 -80.9271268910308 0.0211624016060417 -169.594012304113 
! Gamma         !               0.0151858380091301 30.3716836111854 0.0151858380091179 30.3716836112015 
! Port Impedance50               0                50               0                

1.02             0.0212532907135773 -170.837685478776 0.997320175987561 -82.5449084973876 0.997320175987563 -82.5449084973876 0.0212495210461685 -171.125063786694 
! Gamma         !               0.0154962073081981 30.9791175290864 0.0154961886155477 30.9791167534405 
! Port Impedance50               0                50               0                

1.04             0.02132008757164 -172.320852829023 0.997246273519677 -84.1626760642327 0.99724627351968 -84.1626760642326 0.0213159719444335 -172.6598926957  
! Gamma         !               0.0158053392628248 31.586551399997  0.0158053058889615 31.586549997256  
! Port Impedance50               0                50               0                

1.06             0.0213660083032998 -173.806587738035 0.997171687478623 -85.7804304902625 0.997171687478626 -85.7804304902625 0.0213614480529154 -174.197985815575 
! Gamma         !               0.0161134033749418 32.1939852306797 0.0161133586692189 32.1939833280012 
! Port Impedance50               0                50               0                

1.08             0.0213907718763297 -175.29424645348 0.997096428208264 -87.3981726233805 0.997096428208268 -87.3981726233804 0.0213856667204034 -175.738823327474 
! Gamma         !               0.0164205482500411 32.8014190269972 0.0164204950024897 32.801416732984  
! Port Impedance50               0                50               0                

1.1              0.0213941222675566 -176.783170935669 0.997020505984118 -89.0159032634486 0.997020505984122 -89.0159032634485 0.0213883698184123 -177.281876744029 
! Gamma         !               0.0167269041312115 33.4088527940306 0.0167268446590799 33.4088502012007 
! Port Impedance50               0                50               0                

1.12             0.021375829358834 -178.272685622543 0.996943931126928 -90.6336231658504 0.996943931126931 -90.6336231658503 0.0213693245926337 -178.826606748949 
! Gamma         !               0.0170325851121046 34.0162865361889 0.0170325213328842 34.0162837231155 
! Port Impedance50               0                50               0                

1.14             0.0213356897616025 -179.762093951431 0.99686671410487 -92.2513330457831 0.996866714104874 -92.2513330457829 0.0213283244360153 179.627539107474 
! Gamma         !               0.0173376910730593 34.6237202572919 0.0173376245662148 34.6237172904609 
! Port Impedance50               0                50               0                

1.16             0.0212735275677451 178.749325437198 0.996788865623088 -93.8690335831896 0.996788865623092 -93.8690335831894 0.021265189580373 178.081128910409 
! Gamma         !               0.0176423093778727 35.2311539606524 0.0176422414371078 35.2311508960724 
! Port Impedance50               0                50               0                

1.18             0.0211891950254595 177.262322898228 0.996710396699383 -95.4867254282314 0.996710396699388 -95.4867254282312 0.0211797677041595 176.53474913971  
! Gamma         !               0.0179465163631208 35.83858764914   0.0179464480406886 35.8385845337456 
! Port Impedance50               0                50               0                

1.2              0.0210825731398339 175.777682479081 0.996631318725175 -97.1044092071967 0.99663131872518 -97.1044092071966 0.0210719344548265 174.98900775409  
! Gamma         !               0.0182503786472398 36.4460213252382 0.0182503107915565 36.4460181981127 
! Port Impedance50               0                50               0                

1.22             0.0209535721990029 174.296227227625 0.996551643511006 -98.722085528734 0.996551643511012 -98.7220855287339 0.0209415938850648 173.444537678606 
! Gamma         !               0.0185539542826599 37.0534549910957 0.0185538875702681 37.0534518845306 
! Port Impedance50               0                50               0                

1.24             0.0208021322279773 172.818825242549 0.996471383316165 -100.339754990296 0.996471383316171 -100.339754990296 0.0207886788031141 171.902000787243 
! Gamma         !               0.0188572937709838 37.6608886485673 0.0188572287337329 37.6608855889927 
! Port Impedance50               0                50               0                

1.26             0.0206282233737122 171.346396622729 0.996390550862185 -101.957418184679 0.996390550862191 -101.957418184678 0.0206131510383486 170.362092489498 
! Gamma         !               0.0191604409584094 38.2683222992529 0.0191603780065896 38.2683193080445 
! Port Impedance50               0                50               0                

1.28             0.0204318462265473 169.879921503359 0.996309159330259 -103.575075706537 0.996309159330266 -103.575075706537 0.0204150016244083 168.825547051521 
! Gamma         !               0.0194634338262483 38.8757559445294 0.0194633732682853 38.8757530387135 
! Port Impedance50               0                50               0                

1.3              0.0202130320850343 168.420449405947 0.996227222342846 -105.192728158764 0.996227222342853 -105.192728158764 0.0201942509033348 167.293143809786 
! Gamma         !               0.0197663051893789 39.483189585579  0.0197662472486062 39.4831867784499 
! Port Impedance50               0                50               0                

1.32             0.0199718431733132 166.969110178987 0.996144753929959 -106.810376158621 0.996144753929966 -106.810376158621 0.0199509485555132 165.765714470175 
! Gamma         !               0.0200690833137754 40.0906232234138 0.020069028142719 40.0906205250697 
! Port Impedance50               0                50               0                

1.34             0.0197083728227393 165.52712686918  0.996061768480888 -108.428020343509 0.996061768480895 -108.428020343508 0.0196851735616765 164.244151729785 
! Gamma         !               0.0203717924627931 40.6980568588982 0.0203717401553349 40.6980542767101 
! Port Impedance50               0                50               0                

1.36             0.0194227456325131 164.095830943381 0.995978280682299 -110.045661376281 0.995978280682305 -110.045661376281 0.0193970341049786 162.729419515797 
! Gamma         !               0.0206744533806478 41.3054904927671 0.0206744039823768 41.305488031788  
! Port Impedance50               0                50               0                

1.38             0.0191151176278075 162.676680384428 0.995894305443861 -111.663299950006 0.995894305443869 -111.663299950006 0.0190866674231411 161.222565209134 
! Gamma         !               0.0209770837204508 41.9129241256429 0.0209770372374683 41.9129217889638 
! Port Impedance50               0                50               0                

1.4              0.0187856764384564 161.27128131657  0.99580985781275 -113.280936792086 0.995809857812757 -113.280936792085 0.0187542396230672 159.724734315939 
! Gamma         !               0.0212796984232463 42.5203577580488 0.021279654829646 42.5203555471104 
! Port Impedance50               0                50               0                

1.42             0.0184346415270827 159.881413988325 0.995724952878494 -114.89857266767 0.995724952878501 -114.89857266767 0.0183999454732734 158.237188174252 
! Gamma         !               0.0215823100536951 43.1277913904234 0.021582269297911 43.1277893052846 
! Port Impedance50               0                50               0                

1.44             0.0180622645029132 158.50906416523  0.995639605669839 -116.516208382288 0.995639605669846 -116.516208382288 0.0180240081931429 156.761325446999 
! Gamma         !               0.0218849290973663 43.7352250231306 0.0218848911075496 43.735223062705  
! Port Impedance50               0                50               0                

1.46             0.0176688295670888 157.156461280629 0.995553831045353 -118.133844783653 0.99555383104536 -118.133844783653 0.0176266792626707 155.298708369584 
! Gamma         !               0.0221875642239982 44.34265865647   0.022187528912563 44.3426568187287 
! Port Impedance50               0                50               0                

1.48             0.0172546541478327 155.826125084743 0.995467643579612 -119.751482762601 0.99546764357962 -119.7514827626  0.0172082382824312 153.851095011148 
! Gamma         !               0.0224902225205727 44.9500922906846 0.0224901897880284 44.9500905728344 
! Port Impedance50               0                50               0                

1.5              0.0168200898004932 154.520923056579 0.995381057446885 -121.369123253129 0.995381057446892 -121.369123253128 0.0167689929215228 152.42047920131  
! Gamma         !               0.0227929096975941 45.5575259259694 0.0227928794357667 45.5575243246041 
! Port Impedance50               0                50               0                

1.52             0.0163655234699646 153.244141550653 0.995294086304212 -122.986767231534 0.995294086304219 -122.986767231534 0.0163092790020125 151.009140310387 
! Gamma         !               0.0230956302715687 46.1649595624777 0.0230956023662991 46.1649580737109 
! Port Impedance50               0                50               0                

1.54             0.0158913792435966 151.999574613805 0.995206743175866 -124.604415714639 0.995206743175873 -124.604415714639 0.0158294607831665 149.619705810727 
! Gamma         !               0.0233983877263392 46.7723932003266 0.0233983620597319 46.7723918199056 
! Port Impedance50               0                50               0                

1.56             0.0153981207650614 150.791635731992 0.995119040341055 -126.222069757125 0.995119040341061 -126.222069757125 0.0153299315292427 148.255230578957 
! Gamma         !               0.0237011846556211 47.3798268396025 0.0237011611079089 47.3798255630048 
! Port Impedance50               0                50               0                

1.58             0.0148862545387866 149.625499607449 0.995030989226775 -127.839730447996 0.995030989226782 -127.839730447995 0.0148111144735519 146.919298357606 
! Gamma         !               0.024004022888826 47.987260480365  0.0240040013399058 47.9872593028818 
! Port Impedance50               0                50               0                

1.6              0.0143563344385285 148.50728365143  0.99494260030758 -129.457398906213 0.994942600307587 -129.457398906213 0.0142734643329299 145.616152882925 
! Gamma         !               0.0243069036020204 48.5946941226513 0.0243068839327075 48.594693039459  
! Port Impedance50               0                50               0                

1.62             0.0138089678541799 147.444282549382 0.994853883013975 -131.075076275553 0.994853883013981 -131.075076275553 0.0137174695872235 144.350869219313 
! Gamma         !               0.0246098274156659 49.20212776648   0.0246098095087088 49.2021267726996 
! Port Impedance50               0                50               0                

1.64             0.0132448240866403 146.445274532348 0.994764845650995 -132.692763718743 0.994764845651001 -132.692763718743 0.0131436558278451 143.129580315447 
! Gamma         !               0.024912794480602 49.8095614118529 0.0249127782214919 49.8095605026004 
! Port Impedance50               0                50               0                

1.66             0.0126646458605031 145.520925664629 0.994675495328413 -134.310462410951 0.994675495328419 -134.310462410951 0.0125525906145449 141.959780508415 
! Gamma         !               0.0252158045535722 50.4169950587592 0.0252157898311786 50.4169942291885 
! Port Impedance50               0                50               0                

1.68             0.0120692652149689 144.684329762022 0.994585837903837 -135.928173532707 0.994585837903843 -135.928173532707 0.0119448904872253 140.850737950423 
! Gamma         !               0.0255188570634551 51.0244287071768 0.0255188437705144 51.0244279525131 
! Port Impedance50               0                50               0                

1.7              0.011459625630341 143.95173840591  0.994495877939812 -137.545898262344 0.994495877939818 -137.545898262344 0.0113212311058774 139.814063889772 
! Gamma         !               0.0258219511692314 51.6318623570741 0.0258219392027089 51.6318616726441 
! Port Impedance50               0                50               0                

1.72             0.0108368131756116 143.343560928602 0.994405618675826 -139.163637768055 0.994405618675832 -139.163637768055 0.0106823620159584 138.864512112386 
! Gamma         !               0.0261250858106093 52.2392960084125 0.0261250750719572 52.2392953896666 
! Port Impedance50               0                50               0                

1.74             0.0102021009322304 142.885752948977 0.994315062015957 -140.781393199657 0.994315062015963 -140.781393199657 0.010029128400237 138.021123130507 
! Gamma         !               0.0264282597521303 52.8467296611473 0.0264282501474566 52.8467291036782 
! Port Impedance50               0                50               0                

1.76             0.00955701331932245 142.611771399224 0.994224208532666 -142.399165680172 0.994224208532671 -142.399165680172 0.00936250364097748 137.308896529654 
! Gamma         !               0.0267314716214884 53.454163315229  0.0267314630616515 53.4541628147863 
! Port Impedance50               0                50               0                

1.78             0.0089034208388242 142.565365106762 0.994133057487054 -144.016956297328 0.994133057487059 -144.016956297328 0.00868363906978483 136.761292687641 
! Gamma         !               0.0270347199427167 54.0615969706059 0.0270347123433591 54.0615965231056 
! Port Impedance50               0                50               0                

1.8              0.00824368226253278 142.804608301331 0.994041606865698 -145.634766095084 0.994041606865703 -145.634766095084 0.00799394189106421 136.424072376461 
! Gamma         !               0.0273380031648281 54.6690306272223 0.027337996446359 54.6690302287554 
! Port Impedance50               0                50               0                

1.82             0.00758086229149878 143.407786616751 0.993949853433949 -147.252596065287 0.993949853433953 -147.252596065286 0.00729520089277213 136.361358008825 
! Gamma         !               0.0276413196864293 55.2764642850217 0.0276413137739655 55.2764639318594 
! Port Impedance50               0                50               0                

1.84             0.00691907144422228 144.482011645849 0.993857792805414 -148.870447139555 0.993857792805417 -148.870447139555 0.00658979636446291 136.665498118483 
! Gamma         !               0.0279446678767746 55.8838979439466 0.0279446627000487 55.8838976325419 
! Port Impedance50               0                50               0                

1.86             0.00626400636475965 146.175686347752 0.993765419527119 -150.488320181512 0.993765419527122 -150.488320181511 0.00588106478729256 137.473641735121 
! Gamma         !               0.0282480460936771 56.4913316039395 0.0282480415869178 56.4913313309287 
! Port Impedance50               0                50               0                

1.88             0.00562381860556461 148.695766704868 0.993672727179683 -152.106215979431 0.993672727179686 -152.106215979431 0.00517396120009011 138.996452700261 
! Gamma         !               0.0285514526986458 57.0987652649425 0.0285514488004386 57.0987650271444 
! Port Impedance50               0                50               0                

1.9              0.00501050564193876 152.328724542399 0.993579708491647 -153.724135239421 0.993579708491649 -153.724135239421 0.00447632082202428 141.568961672707 
! Gamma         !               0.0288548860695824 57.7061989268985 0.0288548827227133 57.7061987213127 
! Port Impedance50               0                50               0                

1.92             0.00444204765609581 157.455850761597 0.99348635546696 -155.342078579209 0.993486355466963 -155.342078579209 0.00380137214058264 145.73991863817  
! Gamma         !               0.0291583446113314 58.3136325897516 0.0291583417626185 58.3136324135548 
! Port Impedance50               0                50               0                

1.94             0.00394526758438082 164.528791677526 0.993392659524465 -156.960046522612 0.993392659524467 -156.960046522612 0.00317286232241194 152.412268919767 
! Gamma         !               0.0294618267643473 58.9210662534469 0.0294618243644661 58.9210661039887 
! Port Impedance50               0                50               0                

1.96             0.00355814879500659 173.920512644259 0.993298611648088 -158.578039494762 0.993298611648091 -158.578039494762 0.00263493012648272 162.953131634341 
! Gamma         !               0.0297653310117159 59.5284999179317 0.0297653290150171 59.5284997927296 
! Port Impedance50               0                50               0                

1.98             0.00332715901932212 -174.451474178441 0.993204202546365 -160.196057818153 0.993204202546367 -160.196057818153 0.00226506657429846 178.705035507508 
! Gamma         !               0.0300688558847354 60.1359335831537 0.0300688542490611 60.135933479889  
! Port Impedance50               0                50               0                

2                0.00329289702422817 -161.568188428119 0.993109422819782 -161.814101709556 0.993109422819785 -161.814101709556 0.00216328130447274 -161.335725722098 
! Gamma         !               0.0303723999672459 60.7433672490639 0.0303723986537455 60.7433671655741 
! Port Impedance50               0                50               0                

2.02             0.00346788079294846 -149.129931243595 0.993014263134402 -163.432171277842 0.993014263134404 -163.432171277842 0.00237429255626977 -142.18017191647 
! Gamma         !               0.0306759618988726 61.3508009156141 0.0306759608718191 61.3508008498881 
! Port Impedance50               0                50               0                

2.04             0.00382910704241313 -138.561887444021 0.992918714400113 -165.050266522757 0.992918714400114 -165.050266522757 0.00283661623577122 -127.933571264681 
! Gamma         !               0.0309795403773293 61.9582345827584 0.0309795396039383 61.9582345329294 
! Port Impedance50               0                50               0                

2.06             0.00433479239449444 -130.355561353901 0.99282276795189 -166.668387334666 0.992822767951891 -166.668387334666 0.00345648489847853 -118.613846695162 
! Gamma         !               0.0312831341599124 62.5656682504535 0.0312831336101653 62.5656682147922 
! Port Impedance50               0                50               0                

2.08             0.00494444428152138 -124.302250753857 0.992726415732349 -168.28653349527 0.99272641573235 -168.28653349527 0.00416853397480882 -112.735813879071 
! Gamma         !               0.0315867420643028 63.1731019186576 0.0315867417107739 63.1731018955664 
! Port Impedance50               0                50               0                

2.1              0.00562726408864126 -119.958146020217 0.992629650473941 -169.904704679322 0.992629650473942 -169.904704679322 0.00493637398587831 -109.057944684732 
! Gamma         !               0.0318903629687763 63.7805355873311 0.0318903627864663 63.7805355753366 
! Port Impedance50               0                50               0                

2.12             0.00636201840014709 -116.899052341497 0.99253246587912 -171.522900457307 0.992532465879121 -171.522900457307 0.00574023430283372 -106.792133538849 
! Gamma         !               0.0321939958119147 64.3879692564367 0.0321939957780886 64.3879692541838 
! Port Impedance50               0                50               0                

2.14             0.00713446101461857 -114.792286514429 0.992434856796863 -173.141120299096 0.992434856796863 -173.141120299097 0.00656888120896293 -105.461113599252 
! Gamma         !               0.0324976395918966 64.9954029259393 0.0324976396859293 64.995402932184  
! Port Impedance50               0                50               0                

2.16             0.00793496132559417 -113.394240325571 0.992336819393968 -174.759363578528 0.992336819393968 -174.759363578529 0.00741551247916766 -104.771512951988 
! Gamma         !               0.0328012933654393 65.6028365958049 0.0328012935686673 65.6028366094088 
! Port Impedance50               0                50               0                

2.18             0.00875685212426696 -112.530065206016 0.992238351319621 -176.3776295789  0.99223835131962 -176.3776295789  0.00827572910176061 -104.537141708817 
! Gamma         !               0.0331049562464524 66.2102702660026 0.0331049565420321 66.2102702859252 
! Port Impedance50               0                50               0                

2.2              0.00959537262816718 -112.074154232069 0.992139451861813 -177.995917499312 0.99213945186181 -177.995917499312 0.00914650150797714 -104.63566440818 
! Gamma         !               0.0334086274044595 66.8177039365027 0.0334086277772326 66.817703961797  
! Port Impedance50               0                50               0                

2.22             0.0104470070081652 -111.93536365729 0.9920401220943  -179.614226461835 0.992040122094279 -179.614226461834 0.0100256178413092 -104.984025038301 
! Gamma         !               0.0337123060628338 67.4251376072777 0.0337123064991995 67.4251376370833 
! Port Impedance50               0                50               0                

2.24             0.0113090688357596 -112.046637420678 0.991940365012802 178.767444480588 0.991940365012802 178.767444480588 0.0109113752719723 -105.524146387961 
! Gamma         !               0.0340159914968903 68.0325712783019 0.0340159919846844 68.0325713118393 
! Port Impedance50               0                50               0                

2.26             0.0121794360989367 -112.357895889663 0.99184018565942 177.149096335525 0.991840185659418 177.149096335525 0.0118023995311596 -106.214342478205 
! Gamma         !               0.0343196830318698 68.6400049495512 0.0343196835602512 68.6400049861165 
! Port Impedance50               0                50               0                

2.28             0.0130563789145794 -112.831175358038 0.99173959123428 175.530730161829 0.991739591234279 175.530730161829 0.0126975351364904 -107.023995763294 
! Gamma         !               0.0346233800408478 69.2474386210029 0.03462338060019 69.2474386599631 
! Port Impedance50               0                50               0                

2.3              0.0139384451501461 -113.437282869033 0.991638591193437 173.91234705986  0.991638591193435 173.91234705986  0.0135957762077024 -107.930157791389 
! Gamma         !               0.0349270819425925 69.8548722926365 0.0349270825243836 69.8548723334236 
! Port Impedance50               0                50               0                

2.32             0.0148243828946701 -114.15346756954 0.991537197332462 172.293948161222 0.99153719733246 172.293948161222 0.0144962214601907 -108.91531777039 
! Gamma         !               0.0352307881993983 70.4623059644326 0.0352307887961459 70.4623060065393 
! Port Impedance50               0                50               0                

2.34             0.0157130868436123 -114.961777977643 0.991435423855036 170.675534618111 0.991435423855033 170.67553461811  0.0153980440826731 -109.965900726826 
! Gamma         !               0.0355344983149125 71.0697396363735 0.035534498920055 71.0697396793485 
! Port Impedance50               0                50               0                

2.36             0.01660356051041 -115.84788689305 0.991333287426137 169.057107592344 0.991333287426134 169.057107592344 0.0163004710528761 -111.071233582611 
! Gamma         !               0.035838211831973 71.6771733084422 0.0358382124397969 71.6771733518865 
! Port Impedance50               0                50               0                

2.38             0.0174948891136041 -116.800239123871 0.991230807209531 167.438668244153 0.991230807209528 167.438668244153 0.0172027685995921 -112.22281864002 
! Gamma         !               0.0361419283304705 72.284606980624  0.0361419289360337 72.2846070241853 
! Port Impedance50               0                50               0                

2.4              0.0183862197968531 -117.809425018947 0.991128004889381 165.820217720825 0.991128004889379 165.820217720825 0.0181042317660361 -113.413813512931 
! Gamma         !               0.0364456474252489 72.8920406529047 0.0364456480243079 72.8920406962754 
! Port Impedance50               0                50               0                

2.42             0.0192767469733942 -118.867714063308 0.991024904675979 164.201757145273 0.991024904675975 164.201757145273 0.0190041767715182 -114.638652510009 
! Gamma         !               0.0367493687640505 73.4994743252713 0.0367493693529948 73.4994743681838 
! Port Impedance50               0                50               0                

2.44             0.0201657013108214 -119.968703421629 0.990921533295685 162.583287604614 0.990921533295681 162.583287604614 0.0199019353226615 -115.892766728809 
! Gamma         !               0.0370530920255181 74.1069079977122 0.0370530926013076 74.1069080399356 
! Port Impedance50               0                50               0                

2.46             0.0210523413425919 -121.107050072114 0.990817919965348 160.964810138834 0.990817919965345 160.964810138834 0.020796850309838 -117.172374198609 
! Gamma         !               0.0373568169172561 74.7143416702169 0.0373568174773642 74.7143417115538 
! Port Impedance50               0                50               0                

2.48             0.0219359470037035 -122.278264458378 0.990714096351526 159.346325729617 0.990714096351524 159.346325729617 0.0216882725068197 -118.474320502433 
! Gamma         !               0.0376605431739593 75.3217753427753 0.0376605437163202 75.321775383059  
! Port Impedance50               0                50               0                

2.5              0.0228158145966406 -123.478549931635 0.990610096515032 157.727835289402 0.990610096515028 157.727835289402 0.0225755580107641 -119.795956293621 
! Gamma         !               0.0379642705556112 75.9292090153786 0.0379642710785708 75.9292090544701 
! Port Impedance50               0                50               0                

2.52             0.0236912528359034 -124.704676643635 0.990505956841335 156.10933965075  0.990505956841331 156.10933965075  0.0234580662388739 -121.135042132125 
! Gamma         !               0.0382679988457542 76.5366426880191 0.0382679993480255 76.5366427258042 
! Port Impedance50               0                50               0                

2.54             0.0245615797176016 -125.953881622564 0.990401715957549 154.490839556068 0.990401715957545 154.490839556068 0.0243351583517135 -122.489673795813 
! Gamma         !               0.0385717278498358 77.1440763606887 0.0385717283304574 77.1440763970768 
! Port Impedance50               0                50               0                

2.56             0.0254261200293695 -127.223788938935 0.990297414636734 152.872335647761 0.99029741463673 152.872335647761 0.0252061960099974 -123.85822310944 
! Gamma         !               0.0388754573936285 77.7515100333817 0.0388754578519271 77.7515100683016 
! Port Impedance50               0                50               0                

2.58             0.0262842033644358 -128.512345425825 0.990193095690369 151.253828458856 0.990193095690365 151.253828458856 0.0260705403972437 -125.239290657198 
! Gamma         !               0.0391791873217267 78.3589437060918 0.0391791877572824 78.3589437394912 
! Port Impedance50               0                50               0                

2.6              0.0271351625385866 -129.817768544414 0.990088803849898 149.635318404153 0.990088803849895 149.635318404153 0.0269275514587704 -126.631667684355 
! Gamma         !               0.0394829174961192 78.9663773788139 0.0394829179087339 78.9663774106565 
! Port Impedance50               0                50               0                

2.62             0.0279783323338956 -131.138503809378 0.989984585638311 148.016805771937 0.989984585638307 148.016805771937 0.0277765873202944 -128.034305169203 
! Gamma         !               0.0397866477948354 79.5738110515433 0.0397866481845042 79.5738110818074 
! Port Impedance50               0                50               0                

2.64             0.028813048511469 -132.473189796242 0.989880489232743 146.398290716291 0.989880489232738 146.398290716291 0.0286170038586438 -129.446288537752 
! Gamma         !               0.0400903781106669 80.181244724276  0.0400903784775515 80.1812447529527 