! Touchstone file exported from HFSS 2018.2.0
!        File:           C:/Users/10024/OneDrive - The University of Nottingham Ningbo China/Year 4/Final Year Project/HFSS project/Passive_Resonator_Antenna.aedt
!        Generated:      11:26:12 上午  3月 12, 2022
!        Design:         SMA_Thru
!        Project:        Passive_Resonator_Antenna
!        Setup:          Setup1
!        Solution:       Sweep
!
! Variables:
!        MW = 1.992mm
!        ThruL = 3mm
!        g = 0.2mm
!        subH = 0.8mm
!        subX = 20mm
!        subY = 13mm
!        tapW = 1.992mm
!
# GHZ S MA R 50.000000
! Modal data exported
! Port[1] = SMA_CONNECTOR1_1:1
! Port[2] = SMA_CONNECTOR2_1:1
1                0.0190860434306106 -135.434048014918 0.99901321880412 -46.9783052313416 0.999013218804117 -46.9783052313417 0.0190882445680444 -138.613992317362 
! Gamma         !               0.0151858380091649 30.3716836111973 0.0151858380091509 30.3716836111653 
! Port Impedance50               0                50               0                

1.02             0.019409534026376 -136.389397448535 0.998984236523883 -47.9179217796489 0.998984236523881 -47.917921779649 0.0194108482632702 -139.451384647815 
! Gamma         !               0.0155579197714055 30.9791171447347 0.0155579197733746 30.979117145375  
! Port Impedance50               0                50               0                

1.04             0.0197294322085157 -137.343919507213 0.998954818169786 -48.8575434361753 0.998954818169784 -48.8575434361754 0.0197299066735134 -140.291377521302 
! Gamma         !               0.0159220250534021 31.5865506970507 0.0159220250570326 31.5865506982773 
! Port Impedance50               0                50               0                

1.06             0.0200456565360769 -138.297654070588 0.998924969460258 -49.7971704733559 0.998924969460255 -49.797170473356 0.0200453373456954 -141.133814407688 
! Gamma         !               0.0162789101389593 32.1939842659608 0.0162789101439749 32.1939842676967 
! Port Impedance50               0                50               0                

1.08             0.0203581253780036 -139.250636847752 0.998894696054367 -50.7368031697131 0.998894696054364 -50.7368031697132 0.0203570577408245 -141.978548841859 
! Gamma         !               0.0166292578771801 32.8014178495496 0.0166292578833429 32.8014178517267 
! Port Impedance50               0                50               0                

1.1              0.0206667569406549 -140.202899694046 0.998864003548362 -51.6764418097451 0.998864003548359 -51.6764418097452 0.0206649852528737 -142.825443441834 
! Gamma         !               0.0169736856476784 33.4088514461323 0.0169736856547834 33.4088514486894 
! Port Impedance50               0                50               0                

1.12             0.0209714692963292 -141.154470893718 0.998832897472468 -52.6160866838146 0.998832897472465 -52.6160866838147 0.0209690372297103 -143.674369030832 
! Gamma         !               0.0173127523421134 34.0162850542264 0.0173127523499842 34.0162850571084 
! Port Impedance50               0                50               0                

1.14             0.0212721804127076 -142.105375412679 0.998801383287961 -53.5557380880411 0.998801383287959 -53.5557380880412 0.0212691309958698 -144.525203850673 
! Gamma         !               0.0176469644987516 34.6237186725212 0.0176469645072357 34.6237186756802 
! Port Impedance50               0                50               0                

1.16             0.0215688081831615 -143.055635125053 0.998769466384494 -54.4953963241955 0.998769466384492 -54.4953963241956 0.0215651838770015 -145.377832855593 
! Gamma         !               0.0179767817057219 35.2311522998602 0.017976781714688 35.2311523032527 
! Port Impedance50               0                50               0                

1.18             0.0218612704578475 -144.005269016629 0.998737152077676 -55.4350616995979 0.998737152077672 -55.4350616995979 0.0218571132258253 -146.232147077045 
! Gamma         !               0.0183026213711506 35.8385859352168 0.0183026213804858 35.8385859388042 
! Port Impedance50               0                50               0                

1.2              0.0221494850755141 -144.954293367959 0.998704445606886 -56.3747345270203 0.998704445606883 -56.3747345270204 0.0221448364494408 -147.08804305128 
! Gamma         !               0.0186248629437485 36.4460195776827 0.0186248629533553 36.4460195814305 
! Port Impedance50               0                50               0                

1.22             0.0224333698959593 -145.902721919486 0.998671352133332 -57.3144151245942 0.99867135213333 -57.3144151245943 0.0224282710378544 -147.945422302536 
! Gamma         !               0.0189438516552048 37.0534532264482 0.0189438516649994 37.0534532303258 
! Port Impedance50               0                50               0                

1.24             0.0227128428330666 -146.850566020687 0.998637876738312 -58.2541038157232 0.998637876738309 -58.2541038157234 0.0227073345935968 -148.80419087561 
! Gamma         !               0.0192599018454601 37.660886880795  0.0192599018553706 37.6608868847745 
! Port Impedance50               0                50               0                

1.26             0.0229878218883488 -147.797834765079 0.998604024421687 -59.1938009290021 0.998604024421683 -59.1938009290022 0.02298194486229 -149.664258912351 
! Gamma         !               0.019573299923287 38.2683205400817 0.0195732999332517 38.2683205441391 
! Port Impedance50               0                50               0                

1.28             0.0232582251849241 -148.744535112575 0.998569800100552 -60.1335067981424 0.998569800100549 -60.1335067981425 0.0232520197640667 -150.525540267248 
! Gamma         !               0.019884307007286 38.8757542037366 0.0198843070172523 38.8757542078497 
! Port Impedance50               0                50               0                

1.3              0.0235239710018685 -149.690672000584 0.998535208608087 -61.0732217619052 0.998535208608084 -61.0732217619053 0.0235174774257159 -151.387952157912 
! Gamma         !               0.0201931612862117 39.4831878712492 0.0201931612961342 39.4831878753992 
! Port Impedance50               0                50               0                

1.32             0.0237849778088663 -150.636248444991 0.99850025469256 -62.0129461640409 0.998500254692557 -62.0129461640411 0.023778236213454 -152.251414846716 
! Gamma         !               0.0205000801322797 40.0906215421637 0.0205000801421206 40.0906215463328 
! Port Impedance50               0                50               0                

1.34             0.0240411643010952 -151.581265632058 0.998464943016498 -62.9526803532377 0.998464943016495 -62.9526803532379 0.024034214766224 -153.115851350294 
! Gamma         !               0.0208052619966207 40.6980552160714 0.0208052620063474 40.6980552202446 
! Port Impedance50               0                50               0                

1.36             0.0242924494342658 -152.525723002144 0.998429278155974 -63.8924246830771 0.99842927815597 -63.8924246830773 0.0242853320294123 -153.981187173971 
! Gamma         !               0.0211088881122146 41.3054888926068 0.0211088881218  41.3054888967705 
! Port Impedance50               0                50               0                

1.38             0.0245387524597749 -153.469618326009 0.998393264600026 -64.8321795119987 0.998393264600022 -64.8321795119989 0.0245315072889072 -154.847350068539 
! Gamma         !               0.0214111240263653 41.9129225714421 0.0214111240357865 41.9129225755844 
! Port Impedance50               0                50               0                

1.4              0.024779992959876 -154.412947774387 0.998356906750164 -65.7719452032734 0.998356906750161 -65.7719452032736 0.0247726602053999 -155.714269807041 
! Gamma         !               0.0217121209819562 42.5203562522841 0.0217121209911946 42.5203562563944 
! Port Impedance50               0                50               0                

1.42             0.025016090882822 -155.355705981422 0.998320208919975 -66.7117221249849 0.998320208919971 -66.7117221249851 0.0250087108488362 -156.581877979514 
! Gamma         !               0.0220120171643145 43.1277899348684 0.0220120171733546 43.1277899389376 
! Port Impedance50               0                50               0                

1.44             0.0252469665779097 -156.297886102476 0.998283175334772 -67.6515106500207 0.998283175334768 -67.6515106500209 0.0252395797329509 -157.450107803808 
! Gamma         !               0.0223109388284156 43.735223618959  0.022310938837245 43.7352236229788 
! Port Impedance50               0                50               0                

1.46             0.025472540830363 -157.239479866766 0.998245810131319 -68.5913111560714 0.998245810131315 -68.5913111560716 0.0254651878497945 -158.318893950849 
! Gamma         !               0.0226090013193696 44.3426573043442 0.0226090013279784 44.3426573083078 
! Port Impedance50               0                50               0                

1.48             0.025692734895991 -158.180477625192 0.998208117357565 -69.5311240256392 0.998208117357561 -69.5311240256394 0.0256854567041803 -159.1881723828  
! Gamma         !               0.0229063099975604 44.9500909908331 0.0229063100059409 44.9500909947343 
! Port Impedance50               0                50               0                

1.5              0.0259074705355659 -159.120868393727 0.998170100972399 -70.4709496460547 0.998170100972396 -70.4709496460549 0.0259003083479777 -160.057880202806 
! Gamma         !               0.0232029610784607 45.5575246782545 0.0232029610866075 45.557524682088  
! Port Impedance50               0                50               0                

1.52             0.0261166700488617 -160.060639892609 0.998131764845407 -71.4107884095027 0.998131764845403 -71.4107884095029 0.026109665414187 -160.927955515054 
! Gamma         !               0.023499042395968 46.1649583664552 0.023499042403877 46.1649583702166 
! Port Impedance50               0                50               0                

1.54             0.0263202563082893 -160.999778581618 0.998093112756597 -72.3506407130559 0.998093112756593 -72.3506407130561 0.0263134511507166 -161.798337294051 
! Gamma         !               0.0237946340970818 46.7723920552974 0.0237946341047507 46.7723920589828 
! Port Impedance50               0                50               0                

1.56             0.0265181527920869 -161.938269691615 0.998054148396091 -73.2905069587168 0.998054148396087 -73.2905069587171 0.0265115894538141 -162.668965262087 
! Gamma         !               0.0240898092748486 47.3798257446573 0.0240898092822763 47.3798257482634 
! Port Impedance50               0                50               0                

1.58             0.0267102836169995 -162.876097252522 0.998014875363764 -74.2303875534675 0.99801487536376 -74.2303875534677 0.0267040049010861 -163.53977977395 
! Gamma         !               0.0243846345457187 47.9872594344245 0.0243846345529052 47.9872594379491 
! Port Impedance50               0                50               0                

1.6              0.0268965735704112 -163.813244117883 0.997975297168808 -75.1702829093262 0.997975297168804 -75.1702829093264 0.0268906227840448 -164.410721708028 
! Gamma         !               0.0246791705767767 48.5946931244995 0.0246791705837226 48.5946931279405 
! Port Impedance50               0                50               0                

1.62             0.0270769481418621 -164.749691986104 0.997935417229211 -76.1101934434112 0.997935417229206 -76.1101934434114 0.0270713691401341 -165.281732363001 
! Gamma         !               0.0249734725677031 49.2021268147939 0.0249734725744105 49.2021268181495 
! Port Impedance50               0                50               0                

1.64             0.0272513335539369 -165.685421418473 0.997895238871129 -77.0501195780107 0.997895238871125 -77.0501195780109 0.0272461707841858 -166.152753359394 
! Gamma         !               0.0252675906918024 49.809560505228  0.0252675906982738 49.8095605084967 
! Port Impedance50               0                50               0                

1.66             0.0274196567924403 -166.620411853995 0.997854765328152 -77.9900617406586 0.997854765328148 -77.9900617406589 0.0274149553392566 -167.023726545285 
! Gamma         !               0.0255615704999623 50.4169941957309 0.0255615705062006 50.4169941989121 
! Port Impedance50               0                50               0                

1.68             0.027581845635864 -167.554641621089 0.997813999740423 -78.9300203642153 0.997813999740419 -78.9300203642155 0.0275776512668092 -167.894593905539 
! Gamma         !               0.0258554532910035 51.0244278862397 0.0258554532970125 51.0244278893329 
! Port Impedance50               0                50               0                

1.7              0.0277378286840693 -168.488087946171 0.997772945153629 -79.8699958869528 0.997772945153625 -79.869995886953 0.0277341878961842 -168.76529747395 
! Gamma         !               0.0261492764515178 51.631861576698  0.0261492764573013 51.6318615797032 
! Port Impedance50               0                50               0                

1.72             0.0278875353861774 -169.420726959086 0.997731604517825 -80.8099887526437 0.997731604517821 -80.809988752644 0.0278844954533555 -169.63577924772 
! Gamma         !               0.0264430737679692 52.2392952670564 0.0264430737735316 52.2392952699733 
! Port Impedance50               0                50               0                

1.74             0.0280308960676286 -170.352533695391 0.997689980686096 -81.7499994106535 0.997689980686091 -81.7499994106538 0.0280285050889087 -170.505981103721 
! Gamma         !               0.0267368757135532 52.8467289572706 0.0267368757188994 52.8467289600995 
! Port Impedance50               0                50               0                

1.76             0.0281678419563762 -171.283482095426 0.997648076413036 -82.6900283160339 0.997648076413033 -82.6900283160342 0.0281661489052326 -171.375844716022 
! Gamma         !               0.0270307097120561 53.4541626473012 0.0270307097171907 53.4541626500427 
! Port Impedance50               0                50               0                

1.78             0.0282983052082028 -172.213545000111 0.997605894353052 -83.6300759296188 0.997605894353048 -83.6300759296191 0.0282973599829036 -172.245311474153 
! Gamma         !               0.0273246003807314 54.0615963371149 0.0273246003856597 54.0615963397697 
! Port Impedance50               0                50               0                

1.8              0.0284222189311314 -173.14269414339 0.997563437058452 -84.5701427181198 0.997563437058448 -84.5701427181201 0.0284220724062323 -173.114322401642 
! Gamma         !               0.0276185697540185 54.6690300266813 0.0276185697587457 54.6690300292502 
! Port Impedance50               0                50               0                

1.82             0.0285395172089086 -174.070900141212 0.997520706977348 -85.5102291542217 0.997520706977344 -85.510229154222 0.0285402212879667 -173.982818074304 
! Gamma         !               0.027912637489741 55.2764637159742 0.0279126374942724 55.2764637184583 
! Port Impedance50               0                50               0                

1.84             0.0286501351235683 -174.998132476936 0.997477706451344 -86.4503357166763 0.99747770645134 -86.4503357166766 0.028651742793149 -174.850738537834 
! Gamma         !               0.0282068210592752 55.8838974049715 0.0282068210636163 55.8838974073717 
! Port Impedance50               0                50               0                

1.86             0.028754008777036 -175.924359483008 0.997434437713008 -87.3904628903941 0.997434437713005 -87.3904628903944 0.0287565741621033 -175.71802322421 
! Gamma         !               0.0285011359230307 56.4913310936538 0.028501135927187 56.4913310959716 
! Port Impedance50               0                50               0                

1.88             0.0288510753117929 -176.849548318763 0.99739090288313 -88.3306111665327 0.997390902883126 -88.3306111665329 0.0288546537325741 -176.584610866442 
! Gamma         !               0.0287955956924631 57.0987647820045 0.0287955956964401 57.0987647842411 
! Port Impedance50               0                50               0                

1.9              0.028941272930588 -177.773664944162 0.997347103967754 -89.2707810425805 0.997347103967751 -89.2707810425807 0.0289459209610056 -177.450439411178 
! Gamma         !               0.0290902122797232 57.7061984700099 0.0290902122835264 57.7061984721668 
! Port Impedance50               0                50               0                

1.92             0.0290245409151944 -178.696674089258 0.997303042854999 -90.2109730224358 0.997303042854996 -90.2109730224361 0.0290303164429846 -178.315445928694 
! Gamma         !               0.0293849960359477 58.3136321576587 0.0293849960395826 58.3136321597373 
! Port Impedance50               0                50               0                

1.94             0.0291008196442328 -179.618539219185 0.997258721311648 -91.1511876164792 0.997258721311645 -91.1511876164794 0.0291077819328468 -179.179566519755 
! Gamma         !               0.0296799558791049 58.9210658449413 0.0296799558825768 58.9210658469433 
! Port Impedance50               0                50               0                

1.96             0.0291700506100559 179.460777505612 0.99721414097952 -92.0914253416387 0.997214140979516 -92.0914253416389 0.0291782603624837 179.957263781146 
! Gamma         !               0.0299750994122258 59.5284995318508 0.0299750994155402 59.5284995337778 
! Port Impedance50               0                50               0                

1.98             0.029232176434722 178.541315274145 0.997169303371629 -93.0316867214467 0.997169303371625 -93.031686721447 0.0292416958593613 179.095111106719 
! Gamma         !               0.0302704330327807 60.1359332183813 0.030270433035943 60.1359332202351 
! Port Impedance50               0                50               0                

2                0.0292871408850637 177.623114674983 0.997124209868121 -93.9719722860881 0.997124209868117 -93.9719722860884 0.0292980337637941 178.234042862506 
! Gamma         !               0.0305659620338902 60.7433669045291 0.0305659620369057 60.7433669063111 
! Port Impedance50               0                50               0                

2.02             0.029334888886892 176.706217752    0.997078861712006 -94.9122825724373 0.997078861712003 -94.9122825724376 0.0293472206454973 177.374127837799 
! Gamma         !               0.0308616906980048 61.3508005902915 0.0308616907008786 61.3508005920037 
! Port Impedance50               0                50               0                

2.04             0.0293753665383475 175.79066806614  0.997033260004689 -95.8526181240851 0.997033260004686 -95.8526181240854 0.0293892043194765 176.515436322447 
! Gamma         !               0.0311576223836292 61.9582342756673 0.0311576223863665 61.9582342773112 
! Port Impedance50               0                50               0                

2.06             0.0294085211224432 174.876510763608 0.996987405701296 -96.7929794913529 0.996987405701291 -96.7929794913532 0.0294239338612882 175.658040230187 
! Gamma         !               0.0314537596056212 62.5656679606567 0.031453759608227 62.5656679622341 
! Port Impedance50               0                50               0                

2.08             0.0294343011188343 173.963792650909 0.99694129960582 -97.7333672312939 0.996941299605817 -97.7333672312942 0.0294513596217396 174.802013229186 
! Gamma         !               0.0317501041095495 63.17310164526   0.0317501041120285 63.173101646773  
! Port Impedance50               0                50               0                

2.1              0.0294526562148566 173.05256227724  0.996894942366094 -98.6737819076811 0.99689494236609 -98.6737819076814 0.029471433241076 173.947430880501 
! Gamma         !               0.0320466569405537 63.7805353294799 0.0320466569429106 63.7805353309301 
! Port Impedance50               0                50               0                

2.12             0.0294635373158772 172.142870024744 0.996848334468575 -99.6142240909799 0.996848334468573 -99.6142240909802 0.0294841076627411 173.094370785253 
! Gamma         !               0.0323434185071167 64.3879690133188 0.0323434185093565 64.3879690147078 
! Port Impedance50               0                50               0                

2.14             0.0294668965550198 171.234768207214 0.996801476233001 -100.554694358306 0.996801476232998 -100.554694358306 0.0294893371467637 172.242912741312 
! Gamma         !               0.0326403886401237 64.9954026967802 0.0326403886422508 64.9954026981099 
! Port Impedance50               0                50               0                

2.16             0.0294626873023186 170.328311177876 0.99675436780688 -101.495193293365 0.996754367806877 -101.495193293365 0.0294870772828753 171.393138910422 
! Gamma         !               0.0329375666475505 65.6028363798684 0.0329375666495695 65.6028363811404 
! Port Impedance50               0                50               0                

2.18             0.0294508641733582 169.423555446957 0.996707009159863 -102.435721486379 0.99670700915986 -102.435721486379 0.0294772850034382 170.545133996697 
! Gamma         !               0.0332349513651032 66.210270062588  0.0332349513670182 66.2102700638043 
! Port Impedance50               0                50               0                

2.2              0.0294313830374841 168.520559809788 0.996659400077997 -103.376279533992 0.996659400077994 -103.376279533992 0.0294599185962846 169.698985437552 
! Gamma         !               0.0335325412030967 66.8177037449444 0.0335325412049121 66.8177037461067 
! Port Impedance50               0                50               0                

2.22             0.0294042010256398 167.6193854863   0.996611540157882 -104.316868039159 0.996611540157879 -104.316868039159 0.0294349377175726 168.85478360819  
! Gamma         !               0.0338303341898473 67.4251374269432 0.0338303341915671 67.425137428053  
! Port Impedance50               0                50               0                

2.24             0.0293692765379339 166.720096272817 0.996563428800736 -105.257487611014 0.996563428800734 -105.257487611014 0.029402303404784 168.012622040887 
! Gamma         !               0.0341283280118229 68.0325711085908 0.034128328013451 68.0325711096501 
! Port Impedance50               0                50               0                

2.26             0.0293265692510073 165.822758707187 0.996515065206405 -106.198138864722 0.996515065206402 -106.198138864722 0.0293619780899803 167.1725976604   
! Gamma         !               0.0344265200507857 68.6400047898934 0.0344265200523261 68.6400047909036 
! Port Impedance50               0                50               0                

2.28             0.0292760401253099 164.927442248346 0.996466448367306 -107.138822421311 0.996466448367304 -107.138822421311 0.0293139256134621 166.33481103699  
! Gamma         !               0.0347249074181378 69.2474384708581 0.0347249074195942 69.2474384718208 
! Port Impedance50               0                50               0                

2.3              0.0292176514123739 164.034219471579 0.996417577062362 -108.079538907478 0.99641757706236 -108.079538907479 0.0292581112379808 165.499366658637 
! Gamma         !               0.0350234869866658 69.8548721514915 0.0350234869880419 69.8548721524086 
! Port Impedance50               0                50               0                

2.32             0.0291513666622156 163.143166280817 0.996368449850901 -109.020288955386 0.996368449850898 -109.020288955386 0.0291945016636565 164.666373224239 
! Gamma         !               0.0353222554198692 70.4623058318011 0.0353222554211683 70.4623058326739 
! Port Impedance50               0                50               0                

2.34             0.0290771507309663 162.254362139508 0.99631906506657 -109.961073202427 0.996319065066568 -109.961073202427 0.0291230650437869 163.835943959697 
! Gamma         !               0.0356212091990386 71.0697395117943 0.0356212092002643 71.0697395126245 
! Port Impedance50               0                50               0                

2.36             0.0289949697888681 161.367890321711 0.996269420811282 -110.901892290975 0.996269420811279 -110.901892290975 0.0290437710017327 163.008196959042 
! Gamma         !               0.0359203446482428 71.6771731914784 0.0359203446493983 71.6771731922676 
! Port Impedance50               0                50               0                

2.38             0.0289047913287753 160.483838185284 0.996219514949192 -111.842746868111 0.996219514949189 -111.842746868111 0.028956590649084 162.18325555294  
! Gamma         !               0.0362196579573677 72.2846068708614 0.0362196579584562 72.2846068716109 
! Port Impedance50               0                50               0                

2.4              0.0288065841753018 159.602297469208 0.996169345100747 -112.783637585332 0.996169345100744 -112.783637585332 0.0288614966053306 161.36124870716  
! Gamma         !               0.0365191452033439 72.8920405499508 0.0365191452043684 72.8920405506623 
! Port Impedance50               0                50               0                

2.42             0.0287003184947916 158.723364617352 0.99611890863682 -113.724565098237 0.996118908636818 -113.724565098237 0.0287584630192844 160.542311453883 
! Gamma         !               0.0368188023696869 73.4994742287545 0.0368188023706505 73.4994742294293 
! Port Impedance50               0                50               0                

2.44             0.0285859658062633 157.847141131214 0.996068202672945 -114.665530066188 0.996068202672943 -114.665530066189 0.0286474655925201 159.726585359022 
! Gamma         !               0.0371186253644667 74.1069079072801 0.0371186253653722 74.1069079079195 
! Port Impedance50               0                50               0                

2.46             0.0284634989935413 156.973733954464 0.996017224063674 -115.60653315196 0.996017224063673 -115.60653315196 0.0285284816051084 158.914219029065 
! Gamma         !               0.0374186100368157 74.7143415855356 0.0374186100376657 74.7143415861411 
! Port Impedance50               0                50               0                

2.48             0.028332892318755 156.103255892475 0.995965969397084 -116.547575021357 0.995965969397083 -116.547575021357 0.028401489943979 158.105368661371 
! Gamma         !               0.0377187521920742 75.3217752635287 0.0377187521928714 75.3217752641016 
! Port Impedance50               0                50               0                

2.5              0.0281941214374526 155.235826070377 0.995914434989441 -117.488656342822 0.99591443498944 -117.488656342822 0.0282664711342487 157.300198642252 
! Gamma         !               0.0380190476056691 75.9292089412671 0.0380190476064162 75.9292089418087 
! Port Impedance50               0                50               0                

2.52             0.0280471634155461 154.371570433581 0.995862616880049 -118.429777787018 0.995862616880046 -118.429777787018 0.0281234073738931 156.498882197706 
! Gamma         !               0.0383194920358122 76.5366426187587 0.0383194920365116 76.5366426192703 
! Port Impedance50               0                50               0                

2.54             0.0278919967483806 153.510622295218 0.995810510826299 -119.37094002639 0.995810510826296 -119.37094002639 0.0279722825721887 155.701602102212 
! Gamma         !               0.0386200812350991 77.1440762960111 0.0386200812357533 77.1440762964939 
! Port Impedance50               0                50               0                

2.56             0.0277286013821872 152.653122935509 0.995758112298942 -120.312143734712 0.99575811229894 -120.312143734712 0.0278130823923835 154.90855145163  
! Gamma         !               0.0389208109610861 77.7515099730317 0.0389208109616971 77.7515099734868 
! Port Impedance50               0                50               0                

2.58             0.0275569587382722 151.799222258632 0.995705416477597 -121.25338958661 0.995705416477595 -121.253389586611 0.0276457942991066 154.119934506996 
! Gamma         !               0.0392216769859134 78.3589436498282 0.0392216769864835 78.358943650257  
! Port Impedance50               0                50               0                

2.6              0.0273770517402704 150.949079513439 0.995652418246512 -122.194678257077 0.99565241824651 -122.194678257077 0.0274704076110921 153.3359676168   
! Gamma         !               0.0395226751050445 78.966377326408  0.0395226751055758 78.9663773268116 
! Port Impedance50               0                50               0                

2.62             0.0271888648448671 150.102864085149 0.995599112190603 -123.136010420955 0.9955991121906  -123.136010420956 0.0272869135598363 152.55688022628  
! Gamma         !               0.0398238011451791 79.5738110027785 0.0398238011456737 79.5738110031578 
! Port Impedance50               0                50               0                

2.64             0.0269923840764193 149.260756366083 0.995545492591776 -124.077386752418 0.995545492591773 -124.077386752418 0.0270953053549103 151.782915983333 
! Gamma         !               0.0401250509714005 80.1812446789466 0.0401250509718602 80.1812446793026 