! Touchstone file exported from HFSS 2018.2.0
!        File:           C:/Users/10024/OneDrive - The University of Nottingham Ningbo China/Year 4/Final Year Project/HFSS project/Passive_Resonator_Antenna.aedt
!        Generated:      11:26:21 上午  3月 12, 2022
!        Design:         SMA_Thru
!        Project:        Passive_Resonator_Antenna
!        Setup:          Setup1
!        Solution:       Sweep
!
! Variables:
!        MW = 1.992mm
!        ThruL = 5mm
!        g = 0.2mm
!        subH = 0.8mm
!        subX = 20mm
!        subY = 15mm
!        tapW = 1.992mm
!
# GHZ S MA R 50.000000
! Modal data exported
! Port[1] = SMA_CONNECTOR1_1:1
! Port[2] = SMA_CONNECTOR2_1:1
1                0.0209436437851556 -141.661058776628 0.998822629045851 -50.8017598337208 0.998822629045852 -50.8017598337208 0.0209443283073217 -139.757674997535 
! Gamma         !               0.0151858380091399 30.3716836111407 0.0151858380091605 30.3716836112125 
! Port Impedance50               0                50               0                

1.02             0.02127292217892 -142.607677604446 0.998787002634587 -51.8177717756091 0.998787002634588 -51.8177717756091 0.0212738898265554 -140.786736168668 
! Gamma         !               0.0154804365705111 30.9791172971011 0.0154804365704321 30.9791172969147 
! Port Impedance50               0                50               0                

1.04             0.0215970217362843 -143.554831369621 0.998750873735479 -52.8337845117401 0.99875087373548 -52.8337845117401 0.0215982591952232 -141.814079901936 
! Gamma         !               0.015776190109484 31.5865509813159 0.0157761901093147 31.5865509809028 
! Port Impedance50               0                50               0                

1.06             0.0219158504309282 -144.502459403067 0.998714251434319 -53.8497982634725 0.99871425143432 -53.8497982634725 0.0219173433910131 -142.839776222504 
! Gamma         !               0.0160730042229434 32.1939846639294 0.0160730042226928 32.1939846633188 
! Port Impedance50               0                50               0                

1.08             0.0222293167515862 -145.450504123117 0.998677144801143 -54.8658132644844 0.998677144801144 -54.8658132644844 0.0222310499319007 -143.863888748414 
! Gamma         !               0.0163707901311582 32.8014183450777 0.0163707901308353 32.801418344296  
! Port Impedance50               0                50               0                

1.1              0.0225373297096318 -146.39891071104 0.99863956288207 -55.8818297609614 0.998639562882071 -55.8818297609614 0.0225392868807421 -144.886475237533 
! Gamma         !               0.0166694644718529 33.4088520248878 0.0166694644714661 33.4088520239594 
! Port Impedance50               0                50               0                

1.12             0.0228397988470361 -147.347626820934 0.998601514691123 -56.8978480117675 0.998601514691123 -56.8978480117675 0.0228419628504949 -145.90758807611 
! Gamma         !               0.0169689490906431 34.0162857034778 0.0169689490902006 34.0162857024252 
! Port Impedance50               0                50               0                

1.14             0.0231366342446939 -148.296602319159 0.998563009202052 -57.9138682885984 0.998563009202053 -57.9138682885983 0.023138987010045 -146.927274715457 
! Gamma         !               0.0172691708293  34.6237193809592 0.0172691708288096 34.6237193798026 
! Port Impedance50               0                50               0                

1.16             0.0234277465311117 -149.245789049119 0.998524055340168 -58.9298908761165 0.998524055340167 -58.9298908761165 0.0234302690906093 -147.945578062396 
! Gamma         !               0.0175700613131696 35.2311530574347 0.0175700613126388 35.2311530561927 
! Port Impedance50               0                50               0                

1.18             0.0237130468914803 -150.195140617853 0.998484661974167 -59.9459160720687 0.998484661974168 -59.9459160720687 0.0237157193927205 -148.962536828486 
! Gamma         !               0.0178715567389328 35.8385867330006 0.0178715567383685 35.83858673169   
! Port Impedance50               0                50               0                

1.2              0.0239924470771222 -151.144612201436 0.998444837908011 -60.9619441873854 0.998444837908011 -60.9619441873854 0.0239952487937548 -149.978185842334 
! Gamma         !               0.0181735976637662 36.4460204077473 0.0181735976631748 36.4460204063831 
! Port Impedance50               0                50               0                

1.22             0.0242658594153439 -152.094160366576 0.998404591872809 -61.977975546262 0.998404591872808 -61.977975546262 0.0242687687560262 -150.992556328849 
! Gamma         !               0.0184761287968403 37.0534540817566 0.0184761287962279 37.0534540803528 
! Port Impedance50               0                50               0                

1.24             0.0245331968196902 -153.0437429062  0.998363932518748 -62.9940104862213 0.998363932518748 -62.9940104862213 0.0245361913354221 -152.005676158779 
! Gamma         !               0.0187790987939712 37.6608877551068 0.0187790987933433 37.6608877536754 
! Port Impedance50               0                50               0                

1.26             0.0247943728006307 -153.99331868709 0.99832286840707 -64.0100493581587 0.998322868407069 -64.0100493581587 0.0247974291905881 -153.017570071489 
! Gamma         !               0.0190824600561395 38.268321427869  0.0190824600555014 38.2683214264213 
! Port Impedance50               0                50               0                

1.28             0.0250493014766784 -154.942847507917 0.998281408002078 -65.0260925263681 0.998281408002078 -65.0260925263681 0.025052395592659 -154.028259873599 
! Gamma         !               0.0193861685324823 38.8757551001091 0.0193861685318386 38.8757550986549 
! Port Impedance50               0                50               0                

1.3              0.0252978975859794 -155.892289966223 0.998239559663228 -66.0421403685508 0.998239559663227 -66.0421403685508 0.0253010044355448 -155.037764615778 
! Gamma         !               0.0196901835282722 39.4831887718885 0.0196901835276271 39.4831887704367 
! Port Impedance50               0                50               0                

1.32             0.0255400764983669 -156.84160733308 0.998197331637247 -67.0581932758048 0.998197331637247 -67.0581932758049 0.025543170246768 -156.046100749706 
! Gamma         !               0.0199944675183113 40.0906224432634 0.0199944675176687 40.0906224418217 
! Port Impedance50               0                50               0                

1.34             0.0257757542279117 -157.790761434313 0.99815473205035 -68.074251652598 0.998154732050349 -68.074251652598 0.0257788081988615 -157.053282267047 
! Gamma         !               0.0202989859660855 40.6980561142859 0.0202989859654488 40.6980561128612 
! Port Impedance50               0                50               0                

1.36             0.0260048474459856 -158.739714537312 0.998111768900504 -69.0903159167214 0.998111768900503 -69.0903159167214 0.0260078341213325 -158.059320821952 
! Gamma         !               0.020603707148955 41.305489785003  0.0206037071483272 41.3054897836013 
! Port Impedance50               0                50               0                

1.38             0.0262272734948588 -159.688429242544 0.998068450049781 -70.1063864992267 0.99806845004978 -70.1063864992267 0.0262301645132024 -159.064225838545 
! Gamma         !               0.0209086019895854 41.912923455459  0.0209086019889691 41.9129234540852 
! Port Impedance50               0                50               0                

1.4              0.0264429504018342 -160.636868378994 0.998024783216792 -71.1224638443445 0.998024783216792 -71.1224638443446 0.0264457165561232 -160.068004604597 
! Gamma         !               0.0212136438937716 42.5203571256933 0.0212136438931692 42.5203571243524 
! Port Impedance50               0                50               0                

1.42             0.0266517968939556 -161.58499490282 0.997980775969211 -72.1385484093868 0.997980775969211 -72.1385484093869 0.026654408128082 -161.07066235248 
! Gamma         !               0.0215188085947458 43.1277907957427 0.0215188085941595 43.1277907944381 
! Port Impedance50               0                50               0                

1.44             0.026853732413296 -162.532771798589 0.997936435716385 -73.1546406646311 0.997936435716385 -73.1546406646311 0.0268561578177081 -162.072202328357 
! Gamma         !               0.0218240740040183 43.7352244656403 0.0218240740034496 43.7352244643753 
! Port Impedance50               0                50               0                

1.46             0.0270486771328443 -163.480161982485 0.99789176970205 -74.1707410931885 0.997891769702049 -74.1707410931885 0.0270508849391786 -163.072625850439 
! Gamma         !               0.0221294200687542 44.3426581354158 0.0221294200682047 44.3426581341929 
! Port Impedance50               0                50               0                

1.48             0.0272365519730109 -164.427128206969 0.997846784997145 -75.1868501908551 0.997846784997144 -75.1868501908552 0.0272385095477387 -164.071932357048 
! Gamma         !               0.0224348286356547 44.9500918050973 0.0224348286351256 44.9500918039185 
! Port Impedance50               0                50               0                

1.5              0.0274172786187623 -165.37363296635 0.997801488492743 -76.202968465947 0.997801488492742 -76.202968465947 0.0274189524558441 -165.070119445101 
! Gamma         !               0.0227402833212784 45.5575254747088 0.0227402833207705 45.5575254735761 
! Port Impedance50               0                50               0                

1.52             0.0275907795374103 -166.319638402812 0.99775588689308 -77.2190964391191 0.997755886893079 -77.2190964391191 0.0275921352499362 -166.067182899577 
! Gamma         !               0.0230457693887071 46.1649591442726 0.0230457693882211 46.1649591431871 
! Port Impedance50               0                50               0                

1.54             0.0277569779970576 -167.265106212408 0.997709986708718 -78.2352346431689 0.997709986708718 -78.235234643169 0.0277579803078473 -167.063116714424 
! Gamma         !               0.0233512736304415 46.7723928138085 0.0233512736299779 46.7723928127711 
! Port Impedance50               0                50               0                

1.56             0.0279157980857308 -168.209997550594 0.997663794249822 -79.2513836228246 0.997663794249821 -79.2513836228246 0.0279164108168622 -168.057913105284 
! Gamma         !               0.0236567842573892 47.3798264833345 0.0236567842569484 47.3798264823455 
! Port Impedance50               0                50               0                

1.58             0.0280671647312054 -169.154272936852 0.997617315619568 -80.2675439345181 0.997617315619567 -80.2675439345181 0.0280673507924232 -169.051562514372 
! Gamma         !               0.0239622907937898 47.9872601528662 0.0239622907933718 47.9872601519262 
! Port Impedance50               0                50               0                

1.6              0.0282110037215328 -170.09789215798 0.997570556707677 -81.2837161461438 0.997570556707676 -81.2837161461438 0.0282107250975064 -170.044053607758 
! Gamma         !               0.024267783977909 48.5946938224178 0.0242677839775141 48.5946938215265 
! Port Impedance50               0                50               0                

1.62             0.0283472417263042 -171.04081416961 0.997523523184096 -82.2999008368027 0.997523523184096 -82.2999008368028 0.028346459462657 -171.03537326524 
! Gamma         !               0.0245732556683243 49.2021274920012 0.0245732556679523 49.2021274911583 
! Port Impedance50               0                50               0                

1.64             0.0284758063186444 -171.982996995518 0.997476220492813 -83.3160985965335 0.997476220492812 -83.3160985965335 0.0284744805067128 -172.02550656295 
! Gamma         !               0.0248786987556115 49.809561161627  0.0248786987552619 49.8095611608322 
! Port Impedance50               0                50               0                

1.66             0.0285966259979553 -172.924397624291 0.997428653845812 -84.332310026029 0.997428653845811 -84.3323100260291 0.0285947157582029 -173.014436748776 
! Gamma         !               0.0251841070792397 50.4169948313052 0.0251841070789124 50.4169948305576 
! Port Impedance50               0                50               0                

1.68             0.0287096302134378 -173.86497190288 0.997380828217189 -85.3485357363406 0.997380828217188 -85.3485357363406 0.0287070936774373 -174.002145210615 
! Gamma         !               0.0254894753494768 51.0244285010431 0.0254894753491713 51.0244285003419 
! Port Impedance50               0                50               0                

1.7              0.0288147493883853 -174.804674426586 0.997332748337409 -86.3647763485692 0.997332748337408 -86.3647763485692 0.0288115436793069 -174.988611437441 
! Gamma         !               0.0257947990741012 51.6318621708479 0.025794799073817 51.6318621701921 
! Port Impedance50               0                50               0                

1.72             0.0289119149452803 -175.743458424961 0.997284418687726 -87.3810324935444 0.997284418687725 -87.3810324935445 0.0289079961567757 -175.973812973098 
! Gamma         !               0.0261000744897197 52.2392958407251 0.0261000744894562 52.2392958401136 
! Port Impedance50               0                50               0                

1.74             0.0290010593317014 -176.681275643125 0.997235843494762 -88.3973048114918 0.997235843494762 -88.3973048114918 0.0289963825050944 -176.957725362692 
! Gamma         !               0.0264052984974882 52.8467295106795 0.0264052984972447 52.8467295101111 
! Port Impedance50               0                50               0                

1.76             0.029082116047068 -177.618076217945 0.997187026725245 -89.4135939516881 0.997187026725244 -89.4135939516881 0.0290766351467421 -177.940322091384 
! Gamma         !               0.0267104686030338 53.4541631807149 0.0267104686028097 53.4541631801881 
! Port Impedance50               0                50               0                

1.78             0.0291550196702218 -178.553808548488 0.997137972080914 -90.4299005721058 0.997137972080913 -90.4299005721058 0.02914868755709 -178.921574515361 
! Gamma         !               0.0270155828603801 54.0615968508338 0.0270155828601746 54.0615968503476 
! Port Impedance50               0                50               0                

1.8              0.0292197058878862 -179.488419160124 0.9970886829936  -91.446225339047 0.9970886829936  -91.4462253390471 0.0292124742908117 -179.901451784651 
! Gamma         !               0.0273206398196799 54.6690305210393 0.0273206398194923 54.6690305205919 
! Port Impedance50               0                50               0                

1.82             0.029276111524009 179.578147438374 0.997039162620471 -92.4625689267667 0.997039162620469 -92.4625689267668 0.0292679310090488 179.120079242535 
! Gamma         !               0.0276256384785639 55.2764641913322 0.0276256384783934 55.2764641909223 
! Port Impedance50               0                50               0                

1.84             0.0293241745700187 178.645948905475 0.99698941383945 -93.478932017086 0.996989413839448 -93.478932017086 0.0293149945073345 178.143054094398 
! Gamma         !               0.0279305782369171 55.8838978617139 0.0279305782367628 55.8838978613398 
! Port Impedance50               0                50               0                

1.86             0.0293638342160128 177.715045226037 0.996939439244823 -94.495315298996 0.996939439244822 -94.495315298996 0.0293536027442998 177.167510789542 
! Gamma         !               0.0282354588549034 56.4913315321841 0.0282354588547646 56.4913315318446 
! Port Impedance50               0                50               0                

1.88             0.0293950308829196 176.78549887981  0.996889241143011 -95.5117194682522 0.996889241143011 -95.5117194682522 0.0293836948711685 176.193489950944 
! Gamma         !               0.0285402804140582 57.0987652027433 0.028540280413934 57.0987652024367 
! Port Impedance50               0                50               0                

1.9              0.0294177062556445 175.857375020207 0.996838821548533 -96.5281452269604 0.996838821548532 -96.5281452269604 0.0294052112620669 175.221034930525 
! Gamma         !               0.0288450432812806 57.706198873391  0.0288450432811704 57.7061988731157 
! Port Impedance50               0                50               0                

1.92             0.0294318033172502 174.930741664339 0.996788182180147 -97.5445932831536 0.996788182180147 -97.5445932831536 0.029418093545152 174.250191945058 
! Gamma         !               0.0291497480755599 58.3136325441259 0.0291497480754626 58.3136325438803 
! Port Impedance50               0                50               0                

1.94             0.0294372663842108 174.005669895397 0.996737324457185 -98.5610643503605 0.996737324457185 -98.5610643503605 0.0294222846346044 173.28101022422  
! Gamma         !               0.0294543956372751 58.9210662149469 0.0294543956371901 58.9210662147295 
! Port Impedance50               0                50               0                

1.96             0.0294340411427698 173.082234078589 0.996686249496066 -99.5775591471671 0.996686249496066 -99.5775591471671 0.0294177287634868 172.313542171702 
! Gamma         !               0.0297589869999181 59.5284998858525 0.0297589869998446 59.5284998856618 
! Port Impedance50               0                50               0                

1.98             0.0294220746864675 172.16051209191  0.996634958107004 -100.59407839677 0.996634958107003 -100.59407839677 0.0294043715175146 171.347843540401 
! Gamma         !               0.0300635233640917 60.135933556841  0.030063523364029 60.1359335566755 
! Port Impedance50               0                50               0                

2                0.0294013155548789 171.240585573207 0.996583450790904 -101.610622826522 0.996583450790903 -101.610622826522 0.0293821598697631 170.383973622835 
! Gamma         !               0.0303680060736424 60.7433672279102 0.0303680060735897 60.7433672277684 
! Port Impedance50               0                50               0                

2.02             0.0293717137736407 170.32254018509  0.996531727736456 -102.627193167471 0.996531727736454 -102.627193167471 0.0293510422163518 169.421995458069 
! Gamma         !               0.030672436593795 61.3508008990581 0.0306724365937516 61.3508008989387 
! Port Impedance50               0                50               0                

2.04             0.0293332208958238 169.406465899454 0.996479788817413 -103.643790153894 0.996479788817412 -103.643790153894 0.0293109684131599 168.461976056558 
! Gamma         !               0.0309768164911606 61.9582345702822 0.0309768164911257 61.9582345701835 
! Port Impedance50               0                50               0                

2.06             0.029285790044743 168.4924573035   0.996427633590079 -104.660414522823 0.996427633590078 -104.660414522823 0.0292618898136037 167.50398664453  
! Gamma         !               0.0312811474154959 62.5656682415799 0.0312811474154689 62.5656682415009 
! Port Impedance50               0                50               0                

2.08             0.0292293759582893 167.580613929407 0.996375261290975 -105.677067013562 0.996375261290975 -105.677067013562 0.0292037593075533 166.548102929647 
! Gamma         !               0.0315854310830991 63.1731019129489 0.0315854310830792 63.173101912888  
! Port Impedance50               0                50               0                

2.1              0.0291639350348935 166.671040609983 0.996322670834726 -106.693748367205 0.996322670834725 -106.693748367205 0.0291365313614522 165.59440538996  
! Gamma         !               0.0318896692617313 63.7805355843863 0.031889669261718 63.7805355843422 
! Port Impedance50               0                50               0                

2.12             0.0290894253812352 165.763847862908 0.996269860812128 -107.710459326141 0.996269860812127 -107.710459326141 0.0290601620597087 164.642979588362 
! Gamma         !               0.03219386375696 64.3879692558897 0.0321938637569527 64.3879692558612 
! Port Impedance50               0                50               0                

2.14             0.0290058068618322 164.859152306468 0.996216829488428 -108.727200633557 0.996216829488427 -108.727200633557 0.0289746091474495 163.693916515005 
! Gamma         !               0.0324980163998257 64.9954029274561 0.0324980163998238 64.9954029274421 
! Port Impedance50               0                50               0                

2.16             0.0289130411506646 163.957077109991 0.996163574801805 -109.743973032941 0.996163574801804 -109.743973032941 0.0288798320747553 162.747312960463 
! Gamma         !               0.0328021290357378 65.6028365990828 0.0328021290357409 65.602836599082  
! Port Impedance50               0                50               0                

2.18             0.028811091784996 163.057752482588 0.996110094362056 -110.760777267565 0.996110094362055 -110.760777267565 0.0287757920424584 161.803271922739 
! Gamma         !               0.0331062035145129 66.2102702707668 0.0331062035145203 66.2102702707781 
! Port Impedance50               0                50               0                

2.2              0.0286999242216093 162.161316204188 0.996056385449483 -111.777614079982 0.996056385449482 -111.777614079982 0.0286624520496729 160.861903051589 
! Gamma         !               0.0334102416814697 66.8177039425057 0.0334102416814809 66.8177039425282 
! Port Impedance50               0                50               0                

2.22             0.0285795058956469 161.267914203353 0.996002445014002 -112.794484211503 0.996002445014   -112.794484211503 0.0285397769431854 159.923323134067 
! Gamma         !               0.0337142453695056 67.4251376142964 0.0337142453695202 67.425137614329  
! Port Impedance50               0                50               0                

2.24             0.0284498062823368 160.377701186896 0.995948269674441 -113.811388401676 0.99594826967444 -113.811388401676 0.0284077334688806 158.987656625669 
! Gamma         !               0.0340182163920774 68.0325712861367 0.0340182163920951 68.0325712861781 
! Port Impedance50               0                50               0                

2.26             0.0283107969618737 159.490841326897 0.995893855718076 -114.828327387766 0.995893855718075 -114.828327387766 0.028266290325416 158.055036232023 
! Gamma         !               0.03432215653702 68.6400049580232 0.0343221565370402 68.6400049580728 
! Port Impedance50               0                50               0                

2.28             0.0281624516877901 158.607509011461 0.995839199100357 -115.845301904215 0.995839199100357 -115.845301904215 0.0281154182203543 157.125603546664 
! Gamma         !               0.0346260675611345 69.2474386299538 0.0346260675611569 69.2474386300107 
! Port Impedance50               0                50               0                

2.3              0.0280047464591803 157.727889666298 0.995784295444871 -116.862312682119 0.99578429544487 -116.862312682119 0.027955089929027 156.199509751191 
! Gamma         !               0.0349299511854872 69.8548723019255 0.0349299511855115 69.8548723019886 
! Port Impedance50               0                50               0                

2.32             0.0278376595972104 156.852180655157 0.995729140043508 -117.879360448682 0.995729140043507 -117.879360448682 0.0277852803564155 155.276916384889 
! Gamma         !               0.035233809091361 70.4623059739361 0.0352338090913867 70.4623059740048 
! Port Impedance50               0                50               0                

2.34             0.0276611718263835 155.980592268131 0.995673727856861 -118.896445926679 0.995673727856859 -118.896445926679 0.0276059666023988 154.357996191852 
! Gamma         !               0.0355376429168044 71.0697396459829 0.0355376429168313 71.0697396460566 
! Port Impedance50               0                50               0                

2.36             0.0274752663611247 155.113348808071 0.995618053514844 -119.913569833908 0.995618053514843 -119.913569833908 0.0274171280307583 153.442934054731 
! Gamma         !               0.0358414542537296 71.6771733180638 0.0358414542537574 71.6771733181415 
! Port Impedance50               0                50               0                

2.38             0.0272799289983005 154.250689786706 0.995562111317543 -120.930732882646 0.995562111317541 -120.930732882646 0.0272187463423751 152.531928025467 
! Gamma         !               0.0361452446455113 72.2846069901761 0.0361452446455399 72.2846069902572 
! Port Impedance50               0                50               0                

2.4              0.0270751482164032 153.392871243606 0.995505895236288 -121.947935779093 0.995505895236287 -121.947935779093 0.0270108056531572 151.625190464814 
! Gamma         !               0.036449015585043 72.8920406623179 0.0364490155850721 72.8920406624018 
! Port Impedance50               0                50               0                

2.42             0.0268609152822191 152.540167202958 0.995449398914977 -122.965179222821 0.995449398914976 -122.965179222821 0.0267932925772712 150.722949304111 
! Gamma         !               0.0367527685132087 73.4994743344867 0.036752768513238 73.4994743345728 
! Port Impedance50               0                50               0                

2.44             0.0266372243659286 151.692871285215 0.995392615671616 -123.982463906212 0.995392615671615 -123.982463906212 0.02656619631636 149.825449444725 
! Gamma         !               0.0370565048177334 74.1069080066806 0.0370565048177626 74.1069080067683 
! Port Impedance50               0                50               0                

2.46             0.0264040726657247 150.851298493092 0.995335538500119 -124.999790513904 0.995335538500118 -124.999790513904 0.0263295087555557 148.932954312791 
! Gamma         !               0.0373602258323753 74.7143416788975 0.0373602258324044 74.7143416789865 
! Port Impedance50               0                50               0                

2.48             0.0261614605432054 150.015787194167 0.995278160072343 -126.017159722224 0.995278160072342 -126.017159722224 0.0260832245671673 148.04574758954  
! Gamma         !               0.0376639328364282 75.3217753511358 0.0376639328364571 75.3217753512254 
! Port Impedance50               0                50               0                

2.5              0.0259093916709792 149.186701325691 0.995220472740379 -127.034572198625 0.995220472740378 -127.034572198625 0.0258273413231264 147.16413514052  
! Gamma         !               0.0379676270545018 75.9292090233933 0.0379676270545301 75.929209023483  
! Port Impedance50               0                50               0                

2.52             0.0256478731941619 148.36443285094  0.995162468539091 -128.052028601117 0.995162468539091 -128.052028601117 0.0255618596173839 146.288447170653 
! Gamma         !               0.0382713096565517 76.5366426956681 0.0382713096565794 76.5366426957577 
! Port Impedance50               0                50               0                

2.54             0.0253769159076936 147.549404500927 0.99510413918892 -129.069529577698 0.995104139188919 -129.069529577698 0.0252867831997082 145.419040636265 
! Gamma         !               0.0385749817581344 77.1440763679589 0.0385749817581614 77.1440763680479 
! Port Impedance50               0                50               0                

2.56             0.0250965344517192 146.742072840575 0.995045476098943 -130.087075765788 0.995045476098941 -130.087075765787 0.025002119122515 144.556301950157 
! Gamma         !               0.0388786444208601 77.751510040264  0.0388786444208864 77.7515100403521 
! Port Impedance50               0                50               0                

2.58             0.02480674752766 145.942931704472 0.99498647037021 -131.104667791648 0.994986470370207 -131.104667791648 0.0247078779026827 143.70065002173  
! Gamma         !               0.0391822986530232 78.3589437125816 0.0391822986530486 78.3589437126686 
! Port Impedance50               0                50               0                

2.6              0.0245075781380009 145.152516054689 0.994927112799341 -132.122306269816 0.994927112799339 -132.122306269816 0.0244040737005959 142.85253968104  
! Gamma         !               0.0394859454103876 78.9663773849106 0.0394859454104121 78.9663773849961 
! Port Impedance50               0                50               0                

2.62             0.024199053853386 144.371406321534 0.994867393882415 -133.139991802525 0.994867393882414 -133.139991802525 0.0240907245191008 142.012465543995 
! Gamma         !               0.039789585597109 79.5738110572498 0.0397895855971325 79.5738110573335 
! Port Impedance50               0                50               0                

2.64             0.0238812071111705 143.600233298342 0.99480730381913 -134.157724979132 0.994807303819129 -134.157724979132 0.0237678524254706 141.180966385708 
! Gamma         !               0.0400932200667757 80.1812447295973 0.0400932200667982 80.1812447296789 
! Port Impedance50               0                50               0                
