! Touchstone file exported from HFSS 2018.2.0
!        File:           C:/Users/10024/OneDrive - The University of Nottingham Ningbo China/Year 4/Final Year Project/HFSS project/Passive_Resonator_Antenna.aedt
!        Generated:      11:26:31 上午  3月 12, 2022
!        Design:         SMA_Thru
!        Project:        Passive_Resonator_Antenna
!        Setup:          Setup1
!        Solution:       Sweep
!
! Variables:
!        MW = 1.992mm
!        ThruL = 8mm
!        g = 0.2mm
!        subH = 0.8mm
!        subX = 20mm
!        subY = 18mm
!        tapW = 1.992mm
!
# GHZ S MA R 50.000000
! Modal data exported
! Port[1] = SMA_CONNECTOR1_1:1
! Port[2] = SMA_CONNECTOR2_1:1
1                0.0168265720972669 -145.816487473113 0.998660956945458 -56.3498479029784 0.998660956945458 -56.3498479029784 0.0168255390467372 -146.073052693046 
! Gamma         !               0.0151858380091337 30.3716836111894 0.0151858380091602 30.3716836111562 
! Port Impedance50               0                50               0                

1.02             0.0170477592834489 -146.879107139445 0.998619819294517 -57.4768078341044 0.998619819294518 -57.4768078341044 0.0170465574131787 -147.164607297414 
! Gamma         !               0.015493086037687 30.9791172773372 0.0154930860378041 30.9791172773572 
! Port Impedance50               0                50               0                

1.04             0.017262324168453 -147.940873414507 0.998578131500941 -58.603768966967 0.99857813150094 -58.603768966967 0.0172609327095464 -148.255346732483 
! Gamma         !               0.0157995173124445 31.5865509449392 0.0157995173126275 31.5865509450007 
! Port Impedance50               0                50               0                

1.06             0.0174701589250391 -149.001729000393 0.998535904639806 -59.7307316244511 0.998535904639805 -59.7307316244511 0.0174685560661482 -149.345248479793 
! Gamma         !               0.0161052602865042 32.193984613754  0.0161052602867332 32.1939846138471 
! Port Impedance50               0                50               0                

1.08             0.0176711570348282 -150.061616657189 0.998493149647605 -60.8576961430872 0.998493149647605 -60.8576961430872 0.0176693198747166 -150.434289236424 
! Gamma         !               0.016410426288476 32.801418283574  0.0164104262887351 32.8014182836899 
! Port Impedance50               0                50               0                

1.1              0.0178652133173078 -151.120478908089 0.998449877309521 -61.9846628730068 0.99844987730952 -61.9846628730068 0.0178631178152149 -151.522444789304 
! Gamma         !               0.0167151116760248 33.4088519542228 0.0167151116763015 33.4088519543549 
! Port Impedance50               0                50               0                

1.12             0.0180522239593516 -152.178257760642 0.998406098246921 -63.1116321778799 0.998406098246921 -63.1116321778799 0.0180498448829279 -152.609689893763 
! Gamma         !               0.0170193997136185 34.0162856255493 0.0170193997139025 34.0162856256918 
! Port Impedance50               0                50               0                

1.14             0.0182320865452562 -153.234894440711 0.998361822905099 -64.2386044348345 0.998361822905099 -64.2386044348345 0.0182293974158405 -153.695998154941 
! Gamma         !               0.0173233622124327 34.6237192974255 0.0173233622127164 34.6237192975738 
! Port Impedance50               0                50               0                

1.16             0.0184047000873247 -154.290329136166 0.998317061541264 -65.3655800343579 0.998317061541264 -65.3655800343579 0.0184016731223147 -154.781341910694 
! Gamma         !               0.0176270609646181 35.2311529697425 0.0176270609648955 35.2311529698927 
! Port Impedance50               0                50               0                

1.18             0.0185699650570259 -155.344500747477 0.998271824212796 -66.4925593801791 0.998271824212796 -66.4925593801792 0.0185665711090851 -155.865692114777 
! Gamma         !               0.0179305489993307 35.8385866424069 0.0179305489995973 35.8385866425563 
! Port Impedance50               0                50               0                

1.2              0.0187277834167365 -156.397346642692 0.998226120765784 -67.6195428891328 0.998226120765783 -67.6195428891328 0.01872399190957 -156.949018219111 
! Gamma         !               0.0182338716839212 36.4460203153412 0.018233871684174 36.4460203154869 
! Port Impedance50               0                50               0                

1.22             0.018878058652114 -157.448802414351 0.99817996082385 -68.7465309910038 0.99817996082385 -68.7465309910038 0.0188738375125279 -158.031288053994 
! Gamma         !               0.0185370676903208 37.053453988479  0.0185370676905575 37.0534539886194 
! Port Impedance50               0                50               0                

1.24             0.019020695805137 -158.498801636112 0.998133353777289 -69.8735241283528 0.998133353777288 -69.8735241283528 0.0190160113910664 -159.11246770512 
! Gamma         !               0.0188401698438243 37.6608876617646 0.0188401698440435 37.6608876618984 
! Port Impedance50               0                50               0                

1.26             0.0191556015078265 -159.547275616854 0.998086308772509 -71.0005227563224 0.99808630877251 -71.0005227563224 0.019150418532017 -160.192521386321 
! Gamma         !               0.0191432058690902 38.2683213351519 0.019143205869291 38.2683213352782 
! Port Impedance50               0                50               0                

1.28             0.0192826840167132 -160.594153150178 0.998038834701821 -72.1275273424244 0.99803883470182 -72.1275273424244 0.0192769654656939 -161.271411306893 
! Gamma         !               0.0194461990461497 38.8757550086019 0.0194461990463322 38.8757550087198 
! Port Impedance50               0                50               0                

1.3              0.0194018532480867 -161.639360257178 0.997990940193543 -73.2545383663066 0.997990940193542 -73.2545383663067 0.019395560296067 -162.349097532392 
! Gamma         !               0.0197491687875014 39.4831886820833 0.0197491687876656 39.4831886821927 
! Port Impedance50               0                50               0                

1.32             0.0195130208140779 -162.682819920398 0.997942633602474 -74.381556319502 0.997942633602474 -74.381556319502 0.019506112731345 -163.425537837744 
! Gamma         !               0.0200521311459003 40.0906223555696 0.0200521311460465 40.09062235567   
! Port Impedance50               0                50               0                

1.34             0.0196161000596258 -163.724451806843 0.99789392300072 -75.5085817051565 0.997893923000719 -75.5085817051565 0.0196085341150141 -164.500687551438 
! Gamma         !               0.0203550992612008 40.6980560290407 0.02035509926133 40.6980560291321 
! Port Impedance50               0                50               0                

1.36             0.0197110061004085 -164.764171977857 0.997844816168882 -76.6356150377396 0.997844816168881 -76.6356150377396 0.0197027374573468 -165.574499389564 
! Gamma         !               0.0206580837535445 41.3054897024785 0.0206580837536574 41.3054897025611 
! Port Impedance50               0                50               0                

1.38             0.0197976558617871 -165.801892583603 0.997795320587628 -77.7626568427345 0.997795320587627 -77.7626568427345 0.0197886374674051 -166.646923278316 
! Gamma         !               0.0209610930692494 41.9129233758705 0.0209610930693471 41.9129233759447 
! Port Impedance50               0                50               0                

1.4              0.019875968118851 -166.837521539758 0.99774544342965 -78.8897076563096 0.997745443429649 -78.8897076563096 0.019866150585575 -167.717906163556 
! Gamma         !               0.0212641337849806 42.5203570492067 0.0212641337850641 42.520357049273  
! Port Impedance50               0                50               0                

1.42             0.0199458635376544 -167.87096218389 0.997695191552011 -80.0167680249722 0.997695191552011 -80.0167680249722 0.0199351950166532 -168.787391805864 
! Gamma         !               0.0215672108750812 43.1277907224793 0.0215672108751518 43.1277907225379 
! Port Impedance50               0                50               0                

1.44             0.0200072647177263 -168.902112908818 0.997644571488888 -81.1438385052024 0.997644571488887 -81.1438385052024 0.0199956907635466 -169.855320559396 
! Gamma         !               0.0218703279463569 43.7352243956831 0.0218703279464157 43.7352243957343 
! Port Impedance50               0                50               0                

1.46             0.020060096235976 -169.930866770029 0.997593589444727 -82.2709196630698 0.997593589444727 -82.2709196630698 0.0200475596615922 -170.921629132721 
! Gamma         !               0.0221734874440881 44.342658068815  0.0221734874441361 44.3426580688596 
! Port Impedance50               0                50               0                

1.48             0.0201042846921099 -170.957111063993 0.997542251287806 -83.3980120738322 0.997542251287805 -83.3980120738322 0.020090725413574 -171.98625032961 
! Gamma         !               0.0224766908325968 44.9500917418731 0.0224766908326352 44.9500917419114 
! Port Impedance50               0                50               0                

1.5              0.020139758755681 -171.980726873902 0.997490562544217 -84.525116321516 0.997490562544216 -84.525116321516 0.0201251136254728 -173.049112767555 
! Gamma         !               0.0227799387533015 45.557525414857  0.0227799387533314 45.5575254148896 
! Port Impedance50               0                50               0                

1.52             0.0201664492149432 -173.001588579046 0.997438528392265 -85.6522329984805 0.997438528392264 -85.6522329984805 0.0201506518430024 -174.110140571561 
! Gamma         !               0.0230832311628552 46.1649590877665 0.0230832311628775 46.164959087794  
! Port Impedance50               0                50               0                

1.54             0.0201842890276586 -174.019563323622 0.9973861536573  -86.7793627049648 0.997386153657299 -86.7793627049648 0.0201672695890159 -175.169253040469 
! Gamma         !               0.0233865674536563 46.772392760604  0.0233865674536722 46.7723927606267 
! Port Impedance50               0                50               0                

1.56             0.0201932133740634 -175.034510440343 0.997333442806967 -87.9065060486182 0.997333442806966 -87.9065060486182 0.0201748984018362 -176.22636428276 
! Gamma         !               0.0236899465587673 47.3798264333711 0.0236899465587775 47.3798264333897 
! Port Impedance50               0                50               0                

1.58             0.0201931597121937 -176.046280823675 0.997280399946909 -89.0336636440155 0.997280399946908 -89.0336636440155 0.0201734718746018 -177.281382818424 
! Gamma         !               0.0239933670430368 47.9872601060705 0.0239933670430422 47.9872601060855 
! Port Impedance50               0                50               0                

1.6              0.0201840678358134 -177.054716246941 0.997227028816881 -90.1608361121556 0.99722702881688 -90.1608361121556 0.0201629256957291 -178.334211143079 
! Gamma         !               0.024296827182023 48.594693778705  0.0242968271820244 48.5946937787171 
! Port Impedance50               0                50               0                

1.62             0.0201658799352278 -178.05964861686 0.997173332787322 -91.2880240799466 0.997173332787322 -91.2880240799466 0.0201431976905774 -179.384745250011 
! Gamma         !               0.0246003250301349 49.2021274512787 0.024600325030133 49.2021274512879 
! Port Impedance50               0                50               0                

1.64             0.0201385406612733 -179.060899158278 0.997119314856359 -92.4152281796749 0.997119314856359 -92.4152281796749 0.0201142278644671 179.5671258947   
! Gamma         !               0.0249038584792498 49.8095611237945 0.0249038584792453 49.8095611238015 
! Port Impedance50               0                50               0                

1.66             0.0201019971928377 179.941722479046 0.997064977647251 -93.5424490484622 0.99706497764725 -93.5424490484622 0.0200759584471576 178.521520929456 
! Gamma         !               0.0252074253089239 50.4169947962567 0.0252074253089173 50.4169947962618 
! Port Impedance50               0                50               0                

1.68             0.0200561993083193 178.948419200756 0.99701032340628 -94.6696873277074 0.99701032340628 -94.6696873277074 0.020028333938969 177.478566733047 
! Gamma         !               0.0255110232291917 51.0244284686687 0.0255110232291835 51.0244284686725 
! Port Impedance50               0                50               0                

1.7              0.0200010994614424 177.959407545706 0.996955354001087 -95.7969436625171 0.996955354001085 -95.796943662517 0.0199713011587079 176.438399126237 
! Gamma         !               0.0258146499168358 51.631862141035  0.0258146499168266 51.6318621410374 
! Port Impedance50               0                50               0                

1.72             0.0199366528619842 176.974918873002 0.996900070919443 -96.924218701123 0.996900070919442 -96.924218701123 0.0199048092936222 175.401163647055 
! Gamma         !               0.0261183030459151 52.2392958133587 0.0261183030459053 52.2392958133605 
! Port Impedance50               0                50               0                

1.74             0.0198628175619606 175.995200671621 0.996844475268477 -98.0515130942889 0.996844475268477 -98.0515130942889 0.0198288099515975 174.367016408974 
! Gamma         !               0.0264219803132488 52.8467294856441 0.0264219803132387 52.8467294856452 
! Port Impedance50               0                50               0                

1.76             0.0197795545479598 175.020518007809 0.99678856777434 -99.1788274947051 0.996788567774339 -99.1788274947051 0.0197432572158982 173.336125052442 
! Gamma         !               0.0267256794594786 53.4541631578945 0.0267256794594684 53.4541631578951 
! Port Impedance50               0                50               0                

1.78             0.019686827840388 174.051155127574 0.996732348782305 -100.306162556375 0.996732348782304 -100.306162556375 0.0196481077027339 172.308669801781 
! Gamma         !               0.0270293982862608 54.061596830114  0.027029398286251 54.0615968301147 
! Port Impedance50               0                50               0                

1.8              0.0195846046005059 173.087417234102 0.99667581825733 -101.433518933988 0.99667581825733 -101.433518933988 0.0195433206220381 171.284844641253 
! Gamma         !               0.0273331346700832 54.6690305023053 0.0273331346700738 54.6690305023061 
! Port Impedance50               0                50               0                

1.82             0.019472855246269 172.129632462799 0.996618975785039 -102.560897282289 0.996618975785038 -102.560897282289 0.0194288578418673 170.264858626197 
! Gamma         !               0.0276368865731368 55.2764641744724 0.0276368865731282 55.2764641744735 
! Port Impedance50               0                50               0                

1.84             0.0193515535781538 171.178154080031 0.996561820573156 -103.688298255436 0.996561820573156 -103.688298255436 0.0193046839569105 169.248937347575 
! Gamma         !               0.0279406520516382 55.883897846618  0.0279406520516303 55.8838978466196 
! Port Impedance50               0                50               0                

1.86             0.0192206769163037 170.23336293562  0.996504351453377 -104.81572250635 0.996504351453377 -104.81572250635 0.0191707663616637 168.237324571193 
! Gamma         !               0.0282444292619396 56.4913315187453 0.0282444292619327 56.4913315187475 
! Port Impedance50               0                50               0                

1.88             0.0190802062505914 169.295670203721 0.996446566883665 -105.943170686058 0.996446566883664 -105.943170686058 0.0190270753289503 167.230284076261 
! Gamma         !               0.0285482164647379 57.0987651908571 0.028548216464732 57.0987651908599 
! Port Impedance50               0                50               0                

1.9              0.0189301264053954 168.36552045219  0.996388464950993 -107.070643443035 0.996388464950994 -107.070643443035 0.0188735840945321 166.228101722002 
! Gamma         !               0.0288520120276486 57.7061988629555 0.0288520120276436 57.7061988629592 
! Port Impedance50               0                50               0                

1.92             0.0187704262212439 167.443395086961 0.996330043374513 -108.19814142253 0.996330043374512 -108.19814142253 0.0187102689487241 165.231087775847 
! Gamma         !               0.0291558144263864 58.3136325350436 0.0291558144263825 58.3136325350482 
! Port Impedance50               0                50               0                

1.94             0.0186010987557832 166.529816225452 0.996271299509141 -109.325665265901 0.99627129950914 -109.325665265901 0.0185371093360845 164.239579542467 
! Gamma         !               0.0294596222447654 58.9210662071231 0.0294596222447627 58.9210662071287 
! Port Impedance50               0                50               0                

1.96             0.0184221415070101 165.625351062089 0.996212230349589 -110.453215609932 0.996212230349589 -110.453215609932 0.0183540879644007 163.253944339742 
! Gamma         !               0.0297634341737021 59.5284998791964 0.0297634341737005 59.5284998792029 
! Port Impedance50               0                50               0                

1.98             0.0182335566621704 164.730616799582 0.996152832534801 -111.580793086159 0.996152832534801 -111.580793086159 0.0181611909244765 162.274582876003 
! Gamma         !               0.03006724900939 60.1359335512656 0.0300672490093894 60.135933551273  
! Port Impedance50               0                50               0                

2                0.0180353513763534 163.846286232335 0.996093102352811 -112.708398320184 0.996093102352811 -112.708398320184 0.017958407822457 161.301933092769 
! Gamma         !               0.0303710656507886 60.7433672233316 0.0303710656507889 60.7433672233402 
! Port Impedance50               0                50               0                

2.02             0.0178275380855658 162.973094083476 0.996033035746025 -113.836031930995 0.996033035746024 -113.836031930995 0.0177457319267668 160.336474549163 
! Gamma         !               0.0306748830965538 61.3508008953968 0.0306748830965552 61.3508008954063 
! Port Impedance50               0                50               0                

2.04             0.0176101348599188 162.111844215191 0.995972628316897 -114.963694530277 0.995972628316897 -114.963694530277 0.0175231603321804 159.378733438707 
! Gamma         !               0.0309787004415244 61.9582345674621 0.0309787004415267 61.9582345674727 
! Port Impedance50               0                50               0                

2.06             0.0173831658036623 161.2634178538   0.995911875334035 -116.091386721733 0.995911875334035 -116.091386721733 0.0172906941439683 158.4292883469   
! Gamma         !               0.0312825168728566 62.5656682395293 0.0312825168728598 62.5656682395407 
! Port Impedance50               0                50               0                

2.08             0.0171466615100869 160.428782997343 0.995850771738688 -117.219109100396 0.995850771738688 -117.219109100395 0.017048338685741 157.488776879558 
! Gamma         !               0.0315863316658984 63.1731019115991 0.0315863316659023 63.1731019116114 
! Port Impedance50               0                50               0                

2.1              0.016900659580927 159.609005205236 0.995789312151643 -118.346862251945 0.995789312151643 -118.346862251945 0.016796103735308 156.557903318573 
! Gamma         !               0.0318901441798712 63.7805355836723 0.0318901441798758 63.7805355836857 
! Port Impedance50               0                50               0                

2.12             0.0166452052218132 158.805260008081 0.995727490880521 -119.474646752029 0.995727490880522 -119.474646752029 0.0165340037938295 155.637447494443 
! Gamma         !               0.0321939538534268 64.3879692557503 0.0321939538534321 64.3879692557646 
! Port Impedance50               0                50               0                

2.14             0.0163803519277611 158.018847222679 0.995665301927454 -120.602463165588 0.995665301927454 -120.602463165588 0.016262058394664 154.728275105718 
! Gamma         !               0.0324977602001329 64.9954029278339 0.0324977602001387 64.9954029278488 
! Port Impedance50               0                50               0                

2.16             0.0161061622756068 157.251207514533 0.99560273899715 -121.730312046175 0.995602738997149 -121.730312046175 0.015980292459777 153.831349766157 
! Gamma         !               0.0328015628039345 65.6028365999232 0.0328015628039407 65.6028365999389 
! Port Impedance50               0                50               0                

2.18             0.0158227088439943 156.503941620247 0.995539795505341 -122.858193935293 0.995539795505341 -122.858193935293 0.0156887367133805 152.947747123966 
! Gamma         !               0.0331053613146308 66.2102702720187 0.0331053613146375 66.2102702720352 
! Port Impedance50               0                50               0                

2.2              0.0155300752860848 155.77883272835  0.995476464587613 -123.986109361724 0.995476464587612 -123.986109361724 0.0153874281647696 152.078671477448 
! Gamma         !               0.0334091554434031 66.8177039441215 0.03340915544341 66.8177039441386 
! Port Impedance50               0                50               0                

2.22             0.0152283575858885 155.077872623111 0.995412739108589 -125.114058840879 0.995412739108589 -125.114058840879 0.0150764106752327 151.225475412831 
! Gamma         !               0.03371294495842 67.4251376162315 0.0337129449584271 67.4251376162493 
! Port Impedance50               0                50               0                

2.24             0.0149176655363143 154.403292326871 0.995348611671499 -126.242042874138 0.995348611671501 -126.242042874138 0.0147557356276731 150.389683119012 
! Gamma         !               0.0340167296805449 68.0325712883491 0.0340167296805521 68.0325712883674 
! Port Impedance50               0                50               0                

2.26             0.0145981244861317 153.75759813857  0.995284074628098 -127.370061948213 0.995284074628099 -127.370061948213 0.0144254627223856 149.573018199552 
! Gamma         !               0.0343205094791649 68.6400049604744 0.0343205094791722 68.6400049604931 
! Port Impedance50               0                50               0                

2.28             0.0142698774145659 153.143614167316 0.995219120088939 -128.498116534511 0.995219120088941 -128.498116534511 0.0140856609286768 148.777437015507 
! Gamma         !               0.0346242842681561 69.2474386326076 0.0346242842681634 69.2474386326267 
! Port Impedance50               0                50               0                

2.3              0.0139330874069955 152.564532709699 0.995153739934001 -129.626207088507 0.995153739934002 -129.626207088507 0.0137364096302368 148.005168869802 
! Gamma         !               0.0349280540019981 69.8548723047488 0.0349280540020053 69.8548723047682 
! Port Impedance50               0                50               0                

2.32             0.0135879406240507 152.023974130479 0.995087925823658 -130.754334049129 0.995087925823659 -130.754334049129 0.0133778000129159 147.258764705908 
! Gamma         !               0.0352318186720469 70.4623059768977 0.0352318186720538 70.4623059769175 
! Port Impedance50               0                50               0                

2.34             0.0132346498807321 151.5260582926   0.995021669209986 -131.882497838153 0.995021669209987 -131.882497838153 0.0130099367579047 146.541156470217 
! Gamma         !               0.0355355783029726 71.0697396490548 0.0355355783029793 71.0697396490747 
! Port Impedance50               0                50               0                

2.36             0.0128734589835651 151.075490062266 0.994954961348401 -133.01069885961 0.994954961348401 -133.01069885961 0.0126329401224792 145.85572991955  
! Gamma         !               0.035839332949368 71.6771733212195 0.0358393329493745 71.6771733212397 
! Port Impedance50               0                50               0                

2.38             0.0125046480146302 150.677662008046 0.994887793309624 -134.138937499204 0.994887793309626 -134.138937499204 0.0122469485164138 145.206414499695 
! Gamma         !               0.0361430826925287 72.2846069933919 0.0361430826925349 72.2846069934121 
! Port Impedance50               0                50               0                

2.4              0.0121285398045607 150.338778141726 0.994820155991968 -135.267214123745 0.994820155991969 -135.267214123745 0.0118521217175039 144.597795057801 
! Gamma         !               0.0364468276374072 72.8920406655718 0.036446827637413 72.8920406655921 
! Port Impedance50               0                50               0                

2.42             0.0117455079062605 150.066003433854 0.994752040133927 -136.395529080595 0.994752040133928 -136.395529080595 0.0114486449183662 144.035251694505 
! Gamma         !               0.0367505679097413 73.499474337759  0.0367505679097467 73.4994743377792 
! Port Impedance50               0                50               0                

2.44             0.0113559864725387 149.867644892042 0.994683436327086 -137.52388269713 0.994683436327087 -137.52388269713 0.0110367338644618 143.525136172108 
! Gamma         !               0.0370543036533531 74.1069080099534 0.037054303653358 74.1069080099735 
! Port Impedance50               0                50               0                

2.46             0.0109604825609568 149.753371209269 0.994614335029317 -138.652275280215 0.994614335029317 -138.652275280215 0.0106166414386429 143.074996204823 
! Gamma         !               0.037358035027619 74.7143416821544 0.0373580350276234 74.7143416821745 
! Port Impedance50               0                50               0                

2.48             0.01055959154681 149.7344793227   0.994544726578274 -139.780707115698 0.994544726578275 -139.780707115698 0.0101886661831903 142.693862998455 
! Gamma         !               0.0376617622051045 75.3217753543619 0.0376617622051084 75.3217753543819 
! Port Impedance50               0                50               0                

2.5              0.0101540165313927 149.824217531465 0.994474601205173 -140.90917846792 0.994474601205174 -140.90917846792 0.00975316344551713 142.392623058963 
! Gamma         !               0.0379654853693619 75.9292090265758 0.0379654853693654 75.9292090265954 
! Port Impedance50               0                50               0                

2.52             0.00974459290015411 150.038175791368 0.994403949048841 -142.037689579246 0.994403949048843 -142.037689579245 0.0093105601180265 142.184503239309 
! Gamma         !               0.0382692047128857 76.5366426987956 0.0382692047128886 76.5366426988149 
! Port Impedance50               0                50               0                

2.54             0.00933231952720298 150.394753795565 0.994332760170046 -143.166240669605 0.994332760170047 -143.166240669605 0.00886137436168861 142.085709216631 
! Gamma         !               0.0385729204352195 77.144076371021  0.0385729204352217 77.14407637104   
! Port Impedance50               0                50               0                

2.56             0.00891839854766052 150.915715226543 0.994261024566074 -144.294831936065 0.994261024566075 -144.294831936065 0.008406242327879 142.116273437115 
! Gamma         !               0.0388766327412105 77.7515100432518 0.0388766327412122 77.7515100432704 
! Port Impedance50               0                50               0                

2.58             0.00850428612254068 151.626829822455 0.994188732185573 -145.423463552414 0.994188732185574 -145.423463552414 0.00794595483577419 142.301190806759 
! Gamma         !               0.0391803418394059 78.3589437154874 0.039180341839407 78.3589437155057 
! Port Impedance50               0                50               0                

2.6              0.0080917571612087 152.55858949552  0.994115872943627 -146.552135668772 0.994115872943629 -146.552135668771 0.00748150839844911 142.671951100871 
! Gamma         !               0.0394840479405831 78.9663773877278 0.0394840479405835 78.9663773877457 
! Port Impedance50               0                50               0                

2.62             0.00768298742346664 153.746953474858 0.994042436737082 -147.680848411216 0.994042436737082 -147.680848411216 0.00701417719278936 143.268617829108 
! Gamma         !               0.0397877512564105 79.5738110599724 0.0397877512564103 79.5738110599899 
! Port Impedance50               0                50               0                

2.64             0.00728065651285439 155.234018435053 0.993968413460074 -148.809601881439 0.993968413460076 -148.809601881439 0.00654561595064264 144.142652877678 
! Gamma         !               0.0400914519982311 80.1812447322212 0.0400914519982304 80.1812447322382 
! Port Impedance50               0                50               0                
