! Touchstone file exported from HFSS 2018.2.0
!        File:           C:/Users/10024/OneDrive - The University of Nottingham Ningbo China/Year 4/Final Year Project/HFSS project/Patch-1.aedt
!        Generated:      4:45:18 下午  3月 10, 2022
!        Design:         SMA_workbench
!        Project:        Patch-1
!        Setup:          Setup1
!        Solution:       Sweep
!
! Variables:
!        MW = 1.992mm
!        ThruL = 0.001mm
!        g = 0.2mm
!        subH = 0.8mm
!        subX = 20mm
!        subY = 10.001mm
!
# GHZ S MA R 50.000000
! Modal data exported
! Port[1] = SMA_CONNECTOR1_1:1
! Port[2] = SMA_CONNECTOR2_1:1
1                0.0212313672544838 -131.491694229429 0.999177171806788 -41.3952424349086 0.999177171806788 -41.3952424349087 0.021231735092074 -131.754623392427 
! Gamma         !               0.0151858380091515 30.3716836111746 0.0151858380091328 30.371683611178  
! Port Impedance50               0                50               0                

1.02             0.0216132543143767 -132.308822505628 0.999152694840173 -42.2232190021399 0.999152694840173 -42.22321900214  0.0216135850716527 -132.561140384711 
! Gamma         !               0.0155157237244005 30.9791172348725 0.0155157237247412 30.979117235023  
! Port Impedance50               0                50               0                

1.04             0.0219925837995071 -133.12573229852 0.999127835244272 -43.0512007405086 0.999127835244272 -43.0512007405087 0.0219928785000133 -133.367738641905 
! Gamma         !               0.0158417263342598 31.5865508664622 0.0158417263348928 31.5865508667372 
! Port Impedance50               0                50               0                

1.06             0.0223693038610941 -133.942418946586 0.999102598034744 -43.8791878375349 0.999102598034744 -43.879187837535 0.0223695635522783 -134.174396342782 
! Gamma         !               0.0161642746055449 32.1939845049416 0.0161642746064133 32.1939845053206 
! Port Impedance50               0                50               0                

1.08             0.0227433625691014 -134.758878175723 0.999076988246545 -44.707180485554 0.999076988246545 -44.7071804855541 0.022743588325876 -134.981093314595 
! Gamma         !               0.0164837525660424 32.8014181494334 0.0164837525670975 32.8014181498993 
! Port Impedance50               0                50               0                

1.1              0.0231147079122845 -135.57510604782 0.999051010930945 -45.5351788818122 0.999051010930946 -45.5351788818123 0.0231149008402683 -135.787810866604 
! Gamma         !               0.0168005044454819 33.4088517991709 0.0168005044466828 33.4088517997082 
! Port Impedance50               0                50               0                

1.12             0.0234832877983435 -136.391098914164 0.999024671152558 -46.3631832285632 0.999024671152558 -46.3631832285633 0.0234834490368093 -136.594531640738 
! Gamma         !               0.0171148390076274 34.0162854534801 0.0171148390089391 34.0162854540751 
! Port Impedance50               0                50               0                

1.14             0.0238490500541763 -137.206853373102 0.998997973986364 -47.1911937331648 0.998997973986364 -47.1911937331649 0.0238491807787398 -137.401239477319 
! Gamma         !               0.0174270333578334 34.6237191117695 0.0174270333592263 34.6237191124105 
! Port Impedance50               0                50               0                

1.16             0.0242119424262425 -138.022366231561 0.998970924514747 -48.0192106081756 0.998970924514747 -48.0192106081757 0.0242120438513055 -138.207919294127 
! Gamma         !               0.0177373362974527 35.2311527735194 0.0177373362989018 35.2311527741958 
! Port Impedance50               0                50               0                

1.18             0.0245719125810312 -138.837634469972 0.998943527824523 -48.8472340714515 0.998943527824523 -48.8472340714516 0.0245719859620191 -139.014556977246 
! Gamma         !               0.018045971285694 35.8385864382719 0.0180459712871784 35.8385864389745 
! Port Impedance50               0                50               0                

1.2              0.0249289081056427 -139.652655210296 0.998915789003976 -49.6752643462428 0.998915789003976 -49.6752643462429 0.0249289547410452 -139.821139282385 
! Gamma         !               0.0183531390605235 36.4460201056229 0.0183531390620251 36.446020106344  
! Port Impedance50               0                50               0                

1.22             0.0252828765084815 -140.467425686788 0.998887713139894 -50.5033016612895 0.998887713139895 -50.5033016612896 0.0252828977417165 -140.627653745499 
! Gamma         !               0.0186590199626635 37.0534537752179 0.0186590199641678 37.0534537759504 
! Port Impedance50               0                50               0                

1.24             0.0256337652200677 -141.281943219274 0.998859305314607 -51.3313462509178 0.998859305314608 -51.3313462509179 0.0256337624411895 -141.434088601709 
! Gamma         !               0.0189637760004171 37.6608874467424 0.0189637760019117 37.6608874474801 
! Port Impedance50               0                50               0                

1.26             0.0259815215939625 -142.096205188646 0.998830570603026 -52.1593983551348 0.998830570603026 -52.1593983551349 0.0259814962412303 -142.240432711603 
! Gamma         !               0.0192675526877002 38.2683211199192 0.0192675526891749 38.2683211206571 
! Port Impedance50               0                50               0                

1.28             0.0263260929078188 -142.910209014377 0.998801514069677 -52.987458219723 0.998801514069677 -52.987458219723 0.0263260464691317 -143.046675494166 
! Gamma         !               0.0195704806831644 38.8757547945037 0.0195704806846107 38.8757547952374 
! Port Impedance50               0                50               0                

1.3              0.02666742636455 -143.723952133863 0.998772140765749 -53.8155260963333 0.998772140765748 -53.8155260963334 0.0266673603787687 -143.852806865595 
! Gamma         !               0.0198726772544706 39.4831884702805 0.0198726772558819 39.4831884710058 
! Port Impedance50               0                50               0                

1.32             0.0270054690936255 -144.537431983386 0.998742455726126 -54.643602242578 0.998742455726126 -54.6436022425781 0.0270053851517928 -144.658817183441 
! Gamma         !               0.0201742475885277 40.0906221470588 0.0201742475898986 40.0906221477725 
! Port Impedance50               0                50               0                

1.34             0.0273401681524939 -145.350645980557 0.998712463966437 -55.4716869221214 0.998712463966437 -55.4716869221215 0.027340067898957 -145.464697195483 
! Gamma         !               0.0204752859657485 40.6980558246698 0.0204752859670745 40.6980558253692 
! Port Impedance50               0                50               0                

1.36             0.0276714705281321 -146.163591508077 0.99868217048009 -56.2997804047696 0.998682170480091 -56.2997804047697 0.0276713556615891 -146.270437992879 
! Gamma         !               0.0207758768140102 41.3054895029658 0.0207758768152883 41.3054895036484 
! Port Impedance50               0                50               0                

1.38             0.0279993231387274 -146.976265898702 0.998651580235318 -57.1278829665593 0.998651580235319 -57.1278829665594 0.0279991954131968 -147.076030967138 
! Gamma         !               0.0210760956559938 41.9129231818156 0.0210760956572214 41.9129231824796 
! Port Impedance50               0                50               0                

1.4              0.0283236728354915 -147.788666421257 0.998620698172222 -57.9559948898439 0.998620698172223 -57.955994889844 0.0283235340612153 -147.881467770549 
! Gamma         !               0.0213760099618306 42.5203568611043 0.0213760099630062 42.520356861748  
! Port Impedance50               0                50               0                

1.42             0.0286444664046145 -148.600790267611 0.998589529199814 -58.7841164633788 0.998589529199814 -58.7841164633789 0.0286443184489066 -148.686740279697 
! Gamma         !               0.0216756799175042 43.1277905407305 0.0216756799186266 43.1277905413527 
! Port Impedance50               0                50               0                

1.44             0.028961650569346 -149.412634540513 0.998558078193059 -59.6122479824045 0.99855807819306 -59.6122479824045 0.0289614953573936 -149.491840561763 
! Gamma         !               0.02197515911816 43.7352242206058 0.0219751591192288 43.7352242212054 
! Port Impedance50               0                50               0                

1.46             0.0292751719922237 -150.224196242165 0.998526349989922 -60.4403897487273 0.998526349989924 -60.4403897487273 0.0292750115078419 -150.296760843334 
! Gamma         !               0.0222744951943709 44.3426579006514 0.0222744951953858 44.3426579012278 
! Port Impedance50               0                50               0                

1.48             0.029584977277441 -151.035472263485 0.998494349388416 -61.268542070799 0.998494349388416 -61.268542070799 0.0295848135637948 -151.101493481461 
! Gamma         !               0.0225737303784369 44.9500915808003 0.0225737303793985 44.9500915813527 
! Port Impedance50               0                50               0                

1.5              0.0298910129733538 -151.846459373942 0.99846208114364 -62.0967052637929 0.998462081143642 -62.0967052637929 0.0298908481336506 -151.906030936738 
! Gamma         !               0.0228729020169726 45.5575252609924 0.0228729020178812 45.5575252615208 
! Port Impedance50               0                50               0                

1.52             0.0301932255751366 -152.657154211915 0.998429549964837 -62.9248796496789 0.998429549964837 -62.9248796496789 0.0301930617732941 -152.710365748191 
! Gamma         !               0.023172043035296 46.164958941177  0.0231720430361528 46.1649589416807 
! Port Impedance50               0                50               0                

1.54             0.0304915615275822 -153.467553275497 0.998396760512431 -63.7530655572951 0.998396760512431 -63.7530655572952 0.0304914009888767 -153.514490509802 
! Gamma         !               0.0234711823585148 46.772392621309  0.0234711823593205 46.7723926217882 
! Port Impedance50               0                50               0                

1.56             0.0307859672280503 -154.277652913673 0.998363717395082 -64.5812633224174 0.998363717395083 -64.5812633224175 0.0307858122397588 -154.318397848482 
! Gamma         !               0.0237703452936392 47.3798263013501 0.0237703452943953 47.3798263018051 
! Port Impedance50               0                50               0                

1.58             0.0310763890295701 -155.087449317824 0.998330425166736 -65.4094732878264 0.998330425166736 -65.4094732878264 0.0310762419415938 -155.122080403342 
! Gamma         !               0.0240695538765804 47.9872599812677 0.0240695538772884 47.9872599816985 
! Port Impedance50               0                50               0                

1.6              0.0313627732440849 -155.8969385135  0.998296888323671 -66.2376958033713 0.998296888323671 -66.2376958033713 0.0313626364695832 -155.925530806124 
! Gamma         !               0.0243688271874598 48.5946936610339 0.0243688271881211 48.5946936614409 
! Port Impedance50               0                50               0                

1.62             0.0316450661458642 -156.706116352397 0.998263111301551 -67.0659312260315 0.998263111301551 -67.0659312260315 0.0316449421618805 -156.728741662658 
! Gamma         !               0.0246681816372894 49.2021273406253 0.0246681816379057 49.2021273410088 
! Port Impedance50               0                50               0                

1.64             0.0319232139750601 -157.514978504506 0.998229098472476 -67.8941799199747 0.998229098472478 -67.8941799199748 0.0319231053231588 -157.531705535224 
! Gamma         !               0.0249676312287539 49.8095610200223 0.0249676312293268 49.8095610203826 
! Port Impedance50               0                50               0                

1.66             0.0321971629414262 -158.323520450371 0.998194854142039 -68.7224422566128 0.99819485414204 -68.7224422566129 0.0321970722283391 -158.33441492571 
! Gamma         !               0.0252671877935365 50.4169946992086 0.0252671877940676 50.4169946995465 
! Port Impedance50               0                50               0                

1.68             0.032466859228198 -159.131737473432 0.998160382546374 -69.5507186146536 0.998160382546375 -69.5507186146537 0.0324667891264873 -159.136862259466 
! Gamma         !               0.0255668612083784 51.0244283781717 0.0255668612088696 51.0244283784877 
! Port Impedance50               0                50               0                

1.7              0.0327322489961271 -159.939624652389 0.998125687849211 -70.3790093801506 0.998125687849211 -70.3790093801506 0.0327322022448664 -159.939039869758 
! Gamma         !               0.0258666595918361 51.6318620569013 0.0258666595922891 51.6318620571959 
! Port Impedance50               0                50               0                

1.72             0.0329932783876864 -160.747176853562 0.998090774138934 -71.2073149465487 0.998090774138934 -71.2073149465487 0.0329932577931661 -160.740939982743 
! Gamma         !               0.0261665894835002 52.2392957353894 0.0261665894839168 52.2392957356631 
! Port Impedance50               0                50               0                

1.74             0.0332498935314333 -161.554388723211 0.998055645425635 -72.0356357147272 0.998055645425634 -72.0356357147272 0.0332499019678944 -161.542554702858 
! Gamma         !               0.0264666560072645 52.8467294136305 0.0264666560076466 52.8467294138843 
! Port Impedance50               0                50               0                

1.76             0.0335020405465435 -162.361254679765 0.998020305638164 -72.8639720930391 0.998020305638165 -72.8639720930392 0.0335020809569425 -162.343875998592 
! Gamma         !               0.0267668630200783 53.4541630916212 0.0267668630204274 53.4541630918555 
! Port Impedance50               0                50               0                

1.78             0.0337496655475121 -163.167768905947 0.997984758621196 -73.6923244973473 0.997984758621196 -73.6923244973473 0.0337497409443207 -163.144895688521 
! Gamma         !               0.027067213247471 54.0615967693591 0.0270672132477888 54.0615967695748 
! Port Impedance50               0                50               0                

1.8              0.0339927146490238 -163.973925340731 0.997949008132276 -74.5206933510571 0.997949008132276 -74.5206933510571 0.033992828115069 -163.945605427578 
! Gamma         !               0.0273677084070191 54.669030446844  0.0273677084073073 54.6690304470417 
! Port Impedance50               0                50               0                

1.82             0.0342311339709959 -164.779717671135 0.997913057838881 -75.3490790851452 0.997913057838881 -75.3490790851452 0.0342312886603453 -164.745996693469 
! Gamma         !               0.0276683493208099 55.2764641240766 0.0276683493210703 55.276464124257  
! Port Impedance50               0                50               0                

1.84             0.0344648696437938 -165.585139323784 0.997876911315476 -76.1774821381856 0.997876911315476 -76.1774821381856 0.0344650687826866 -165.546060773196 
! Gamma         !               0.02796913601786 55.8838978010589 0.0279691360180941 55.8838978012229 
! Port Impedance50               0                50               0                

1.86             0.0346938678136244 -166.390183456229 0.997840572040566 -77.0059029563714 0.997840572040567 -77.0059029563714 0.034694114701455 -166.345788749607 
! Gamma         !               0.0282700678273558 56.4913314777939 0.0282700678275652 56.4913314779421 
! Port Impedance50               0                50               0                

1.88             0.0349180746481078 -167.194842947992 0.997804043393758 -77.8343419935328 0.997804043393758 -77.8343419935329 0.0349183726584615 -167.14517148794 
! Gamma         !               0.028571143463504 57.0987651542852 0.0285711434636901 57.0987651544183 
! Port Impedance50               0                50               0                

1.9              0.0351374363420208 -167.999110391292 0.997767328652806 -78.6627997111525 0.997767328652807 -78.6627997111525 0.0351377889237786 -167.944199622299 
! Gamma         !               0.02887236110271 57.7061988305375 0.0288723611028743 57.7061988306563 
! Port Impedance50               0                50               0                

1.92             0.0353518991232343 -168.802978081438 0.997730430990677 -79.4912765783759 0.997730430990677 -79.4912765783759 0.0353523098017299 -168.742863542002 
! Gamma         !               0.0291737184537342 58.3136325065559 0.0291737184538781 58.313632506661  
! Port Impedance50               0                50               0                

1.94             0.0355614092588229 -169.60643800684 0.997693353472595 -80.3197730720183 0.997693353472595 -80.3197730720183 0.0355618816370757 -169.541153377774 
! Gamma         !               0.0294752128214228 58.921066182346  0.0294752128215477 58.9210661824381 
! Port Impedance50               0                50               0                

1.96             0.0357659130613682 -170.409481838621 0.997656099053096 -81.1482896765688 0.997656099053096 -81.1482896765688 0.0357664508213854 -170.339058987712 
! Gamma         !               0.0297768411645521 59.528499857914  0.0297768411646593 59.5284998579939 
! Port Impedance50               0                50               0                

1.98             0.035965356895443 -171.212100919793 0.997618670573081 -81.9768268841891 0.997618670573083 -81.9768268841891 0.0359659637995982 -171.136569942986 
! Gamma         !               0.0300786001482833 60.1359335332662 0.030078600148374 60.1359335333345 
! Port Impedance50               0                50               0                

2                0.0361596871842918 -172.014286253952 0.997581070756868 -82.8053851947094 0.997581070756868 -82.8053851947094 0.0361603670767863 -171.933675513238 
! Gamma         !               0.0303804861916776 60.7433672084096 0.030380486191753 60.743367208467  
! Port Impedance50               0                50               0                

2.02             0.0363488504166985 -172.816028493483 0.997543302209231 -83.6339651156202 0.99754330220923 -83.6339651156202 0.0363496072251063 -172.730364651605 
! Gamma         !               0.0306824955106865 61.350800883351  0.0306824955107478 61.3508008833982 
! Port Impedance50               0                50               0                

2.04             0.03653279315405 -173.617317927218 0.997505367412451 -84.4625671620597 0.997505367412451 -84.4625671620597 0.0365336308909546 -173.526625979348 
! Gamma         !               0.0309846241569941 61.9582345580978 0.0309846241570424 61.9582345581353 
! Port Impedance50               0                50               0                

2.06             0.0367114620375974 -174.418144467515 0.997467268723368 -85.2911918567977 0.99746726872337 -85.2911918567977 0.0367123848023231 -174.322447770021 
! Gamma         !               0.0312868680530578 62.5656682326572 0.031286868053094 62.5656682326855 
! Port Impedance50               0                50               0                

2.08             0.0368848037959158 -175.218497636736 0.997429008370416 -86.1198397302156 0.997429008370416 -86.1198397302156 0.0368858157763563 -175.117817933135 
! Gamma         !               0.031589223023665 63.1731019070365 0.0315892230236903 63.1731019070564 
! Port Impedance50               0                50               0                

2.1              0.0370527652525682 -176.018366553067 0.997390588450661 -86.9485113202816 0.997390588450661 -86.9485113202816 0.0370538707271235 -175.912723997273 
! Gamma         !               0.0318916848242977 63.7805355812432 0.0318916848243129 63.7805355812551 
! Port Impedance50               0                50               0                

2.12             0.0372152933339639 -176.817739915643 0.997352010926848 -87.7772071725226 0.997352010926848 -87.7772071725226 0.0372164966735869 -176.707153092601 
! Gamma         !               0.0321942491665695 64.3879692552846 0.0321942491665756 64.3879692552892 
! Port Impedance50               0                50               0                

2.14             0.0373723350774428 -177.616605988947 0.997313277624429 -88.6059278399917 0.99731327762443 -88.6059278399917 0.0373736407477985 -177.501091932725 
! Gamma         !               0.0324969117409837 64.9954029291681 0.0324969117409814 64.9954029291659 
! Port Impedance50               0                50               0                

2.16             0.0375238376395485 -178.414952586425 0.997274390228606 -89.4346738832314 0.997274390228606 -89.4346738832314 0.0375252502033004 -178.29452679584 
! Gamma         !               0.0327996682372345 65.602836602901  0.0327996682372246 65.6028366028925 
! Port Impedance50               0                50               0                

2.18             0.0376697483045303 -179.212767053277 0.997235350281349 -90.2634458702333 0.997235350281349 -90.2634458702333 0.0376712724237461 -179.087443505111 
! Gamma         !               0.0331025143622607 66.2102702764908 0.033102514362244 66.2102702764765 
! Port Impedance50               0                50               0                

2.2              0.0378100144930566 179.989963751627 0.99719615917844 -91.0922443763924 0.997196159178439 -91.0922443763924 0.0378116549317539 -179.879827408248 
! Gamma         !               0.0334054458562413 66.8177039499444 0.0334054458562186 66.8177039499246 
! Port Impedance50               0                50               0                

2.22             0.0379445837711455 179.193253474761 0.997156818166485 -91.9210699844584 0.997156818166484 -91.9210699844584 0.0379463453979719 179.32833664382  
! Gamma         !               0.0337084585067086 67.4251376232688 0.0337084585066805 67.4251376232442 
! Port Impedance50               0                50               0                

2.24             0.0380734038593199 178.397116287934 0.997117328339949 -92.7499232844821 0.997117328339949 -92.7499232844821 0.0380752916503824 178.537064319197 
! Gamma         !               0.0340115481609396 68.032571296471  0.0340115481609067 68.0325712964418 
! Port Impedance50               0                50               0                

2.26             0.038196422641995 177.60156690933  0.997077690638168 -93.5788048737578 0.997077690638168 -93.5788048737578 0.0381984416838408 177.746371828287 
! Gamma         !               0.0343147107367741 68.6400049695577 0.034314710736737 68.6400049695245 
! Port Impedance50               0                50               0                

2.28             0.0383135881770873 176.806620625641 0.997037905842374 -94.407715356761 0.997037905842374 -94.407715356761 0.0383157436698467 176.956275948145 
! Gamma         !               0.0346179422319972 69.2474386425354 0.0346179422319565 69.2474386424985 
! Port Impedance50               0                50               0                

2.3              0.0384248487058676 176.012293315387 0.996997974572706 -95.2366553450822 0.996997974572706 -95.2366553450822 0.0384271459665641 176.166794047972 
! Gamma         !               0.0349212387324105 69.8548723154105 0.0349212387323668 69.8548723153703 
! Port Impedance50               0                50               0                

2.32             0.0385301526630522 175.218601473455 0.996957897285228 -96.0656254573563 0.996957897285227 -96.0656254573563 0.0385325971290834 175.377944115837 
! Gamma         !               0.0352245964187093 70.4623059881892 0.035224596418663 70.4623059881462 
! Port Impedance50               0                50               0                

2.34             0.038629448687132 174.425562236974 0.996917674268936 -96.894626319187 0.996917674268935 -96.894626319187 0.0386320459199433 174.589744786721 
! Gamma         !               0.0355280115722715 71.0697396608777 0.035528011572223 71.069739660832  
! Port Impedance50               0                50               0                

2.36             0.0387226856309615 173.63319341257  0.99687730564277 -97.7236585630677 0.99687730564277 -97.7236585630677 0.038725441319906 173.802215371945 
! Gamma         !               0.0358314805799573 71.6771733334816 0.035831480579907 71.6771733334337 
! Port Impedance50               0                50               0                

2.38             0.0388098125725958 172.841513505117 0.996836791352621 -98.5527228282972 0.996836791352621 -98.5527228282972 0.0388127325390006 173.015375890096 
! Gamma         !               0.0361349999380109 72.2846070060068 0.0361349999379593 72.2846070059568 
! Port Impedance50               0                50               0                

2.4              0.0388907788263906 172.050541748046 0.996796131168337 -99.3818197608912 0.996796131168336 -99.3818197608912 0.038893869027832 172.229247099537 
! Gamma         !               0.0364385662551458 72.8920406784584 0.0364385662550931 72.8920406784068 
! Port Impedance50               0                50               0                

2.42             0.038965533954373 171.26029813534  0.996755324680722 -100.210950013489 0.996755324680721 -100.210950013489 0.0389688004891752 171.44385053261  
! Gamma         !               0.036742176254893 73.4994743508419 0.0367421762548396 73.499474350789  
! Port Impedance50               0                50               0                

2.44             0.0390340277778815 170.470803455298 0.996714371298547 -101.040114245256 0.996714371298546 -101.040114245256 0.0390374768898491 170.659208531646 
! Gamma         !               0.037045826777281 74.1069080231623 0.0370458267772273 74.1069080231083 
! Port Impedance50               0                50               0                

2.46             0.039096210389488 169.682079326184 0.996673270245548 -101.869313121783 0.996673270245547 -101.869313121783 0.0390998484728845 169.875344286892 
! Gamma         !               0.0373495147799152 74.7143416954245 0.0373495147798613 74.7143416953695 
! Port Impedance50               0                50               0                

2.48             0.0391520321652169 168.894148233898 0.996632020557427 -102.698547314975 0.996632020557426 -102.698547314975 0.0391558657699961 169.092281876494 
! Gamma         !               0.0376532373385131 75.321775367633  0.0376532373384594 75.3217753675773 
! Port Impedance50               0                50               0                

2.5              0.0392014437770469 168.107033571773 0.996590621078856 -103.527817502945 0.996590621078855 -103.527817502945 0.0392054796143609 168.310046308665 
! Gamma         !               0.0379569916469556 75.9292090397923 0.0379569916469023 75.9292090397361 
! Port Impedance50               0                50               0                

2.52             0.0392443962057349 167.320759682658 0.996549070460476 -104.357124369893 0.996549070460476 -104.357124369893 0.0392486411537213 167.52866356619  
! Gamma         !               0.0382607750169007 76.5366427119066 0.038260775016848 76.5366427118502 
! Port Impedance50               0                50               0                

2.54             0.0392808407539457 166.535351903429 0.996507367155909 -105.186468605989 0.996507367155908 -105.186468605989 0.0392853018638152 166.748160653419 
! Gamma         !               0.0385645848770092 77.14407638398   0.0385645848769573 77.1440763839236 
! Port Impedance50               0                50               0                

2.56             0.0393107290597149 165.750836612088 0.996465509418748 -106.015850907244 0.996465509418747 -106.015850907244 0.0393154135621532 165.968565645924 
! Gamma         !               0.0388684187718248 77.7515100560164 0.0388684187717739 77.7515100559601 
! Port Impedance50               0                50               0                

2.58             0.039334013110244 164.967241277621 0.996423495299578 -106.845271975381 0.996423495299577 -106.845271975381 0.0393389284221482 165.189907742991 
! Gamma         !               0.0391722743603479 78.3589437280195 0.0391722743602982 78.3589437279634 
! Port Impedance50               0                50               0                

2.6              0.0393506452560503 164.184594512815 0.996381322642981 -107.6747325177  0.99638132264298 -107.6747325177  0.0393557989876108 164.412217323158 
! Gamma         !               0.0394761494143392 78.9663773999927 0.0394761494142907 78.9663773999371 
! Port Impedance50               0                50               0                

2.62             0.039360578225483 163.402926130213 0.996338989084548 -108.504233246934 0.996338989084546 -108.504233246934 0.0393659781876331 163.635526002994 
! Gamma         !               0.0397800418163877 79.5738110719393 0.0397800418163405 79.5738110718843 
! Port Impedance50               0                50               0                

2.64             0.0393637651396094 162.622267201449 0.996296492047897 -109.333774881109 0.996296492047896 -109.333774881109 0.0393694193518687 162.859866699355 
! Gamma         !               0.040083949557772 80.1812447438626 0.0400839495577264 80.1812447438082 
! Port Impedance50               0                50               0                
