! Touchstone file exported from HFSS 2018.2.0
!        File:           C:/Users/10024/OneDrive - The University of Nottingham Ningbo China/Year 4/Final Year Project/HFSS project/Patch-1.aedt
!        Generated:      4:47:54 下午  3月 10, 2022
!        Design:         SMA_workbench
!        Project:        Patch-1
!        Setup:          Setup1
!        Solution:       Sweep
!
! Variables:
!        MW = 1.992mm
!        ThruL = 100mm
!        g = 0.2mm
!        subH = 0.8mm
!        subX = 20mm
!        subY = 110mm
!
# GHZ S MA R 50.000000
! Modal data exported
! Port[1] = SMA_CONNECTOR1_1:1
! Port[2] = SMA_CONNECTOR2_1:1
1                0.026981607169089 -145.872465370807 0.989980514140891 129.573065095456 0.989980514140889 129.573065095456 0.0269259803159277 -136.224823831104 
! Gamma         !               0.0151858380091408 30.3716836111592 0.0151858380091223 30.3716836111483 
! Port Impedance50               0                50               0                

1.02             0.028578321580107 -149.547728816059 0.989637890198244 124.970131365823 0.989637890198263 124.970131365825 0.0285691218278487 -140.47540146441 
! Gamma         !               0.0154895633326171 30.9791172802164 0.0154895545669275 30.9791172938463 
! Port Impedance50               0                50               0                

1.04             0.0300773348050726 -153.385657858627 0.989305345505189 120.368084214715 0.989305345505226 120.368084214717 0.0301056837376776 -144.814993666175 
! Gamma         !               0.0157932844047943 31.5865509508504 0.015793271232377 31.5865509714881 
! Port Impedance50               0                50               0                

1.06             0.0314522380970823 -157.367201500785 0.988983322773875 115.766760307162 0.988983322773924 115.766760307164 0.031510050203233 -149.232326926741 
! Gamma         !               0.0160970026713021 32.1939846225234 0.0160969879654437 32.1939846457318 
! Port Impedance50               0                50               0                

1.08             0.0326782605781994 -161.472609470693 0.988671834975639 111.166011052567 0.988671834975696 111.166011052569 0.0327584444523617 -153.714334156979 
! Gamma         !               0.0164007191730493 32.8014182948487 0.0164007047386229 32.8014183177922 
! Port Impedance50               0                50               0                

1.1              0.0337330534376493 -165.68220673628 0.988370572426977 106.565705993521 0.988370572427037 106.565705993523 0.033829629812358 -158.247033604876 
! Gamma         !               0.0167044346458214 33.4088519675533 0.0167044215334081 33.4088519885433 
! Port Impedance50               0                50               0                

1.12             0.0345973143673017 -169.976958091998 0.988079013244892 101.965734153377 0.988079013244952 101.965734153379 0.0347054664140857 -162.816171147688 
! Gamma         !               0.0170081495975653 34.0162856404494 0.0170081383376915 34.0162856586008 
! Port Impedance50               0                50               0                

1.14             0.0352552341807037 -174.338872648616 0.987796525967345 97.366003470295  0.987796525967401 97.3660034702967 0.0353713032190637 -167.407683537877 
! Gamma         !               0.0173118643680207 34.6237193134112 0.0173118551438587 34.6237193283855 
! Port Impedance50               0                50               0                

1.16             0.0356947581363159 -178.751285134177 0.987522454898974 92.7664386558491 0.987522454899025 92.7664386558505 0.0358161965075918 -172.008020897285 
! Gamma         !               0.0176155791744337 35.2311529863587 0.0176155719474002 35.2311529981737 
! Port Impedance50               0                50               0                

1.18             0.0359076660474137 176.800959967319 0.987256181669471 88.1669779699626 0.987256181669515 88.1669779699636 0.0360329581522804 -176.604352733795 
! Gamma         !               0.0179192941463415 35.838586659244  0.0179192887459085 35.8385866681364 
! Port Impedance50               0                50               0                

1.2              0.0358894865041435 172.331403754184 0.986997160070103 83.5675694800466 0.986997160070138 83.5675694800472 0.0360180485568892 178.815328444328 
! Gamma         !               0.0182230093518119 36.4460203320422 0.0182230055383607 36.4460203383688 
! Port Impedance50               0                50               0                

1.22             0.0356392701247913 167.851936042217 0.9867449248675  78.9681673651476 0.986744924867526 78.968167365148  0.0357713387949494 174.262199566242 
! Gamma         !               0.0185267248170367 37.053454004744  0.0185267223246104 37.0534540089129 
! Port Impedance50               0                50               0                

1.24             0.0351592536489595 163.372818852684 0.986499078431523 74.3687287449814 0.986499078431539 74.3687287449816 0.0352957733026131 169.746695716616 
! Gamma         !               0.0188304405407841 37.6608876773499 0.0188304391050351 37.660887679776  
! Port Impedance50               0                50               0                

1.26             0.0344544503178945 158.902765993464 0.986259261253278 69.7692113797405 0.986259261253286 69.7692113797406 0.0345969680267342 165.278702195834 
! Gamma         !               0.0191341565049014 38.2683213498667 0.0191341558802943 38.2683213509413 
! Port Impedance50               0                50               0                

1.28             0.0335322023133731 154.449077384116 0.986025113572603 65.1695724260892 0.986025113572603 65.1695724260891 0.0336827792862697 160.867865729367 
! Gamma         !               0.0194378726818064 38.8757550223047 0.019437872651169 38.8757550223789 
! Port Impedance50               0                50               0                

1.3              0.032401728451735 150.017830270775 0.985796235390664 60.5697682742682 0.985796235390657 60.5697682742681 0.0325628763013319 156.52405355218  
! Gamma         !               0.0197415890397019 39.483188694676  0.0197415894184587 39.4831886940521 
! Port Impedance50               0                50               0                

1.32             0.0310736955575599 145.614134650498 0.985572151286667 55.9697553523743 0.985572151286654 55.9697553523743 0.0312483462221329 152.258009734787 
! Gamma         !               0.02004530554609 40.0906223669925 0.0200453061829187 40.0906223659214 
! Port Impedance50               0                50               0                

1.34             0.0295598358036394 141.242468763992 0.985352284961337 51.3694916808482 0.98535228496132 51.3694916808483 0.0297513555859906 148.082292653529 
! Gamma         !               0.0203490221700278 40.6980560392657 0.0203490229452251 40.6980560379487 
! Port Impedance50               0                50               0                

1.36             0.0278726256150483 136.9071254586   0.985135946598243 46.7689388992167 0.985135946598223 46.7689388992168 0.028084887632389 144.012637462605 
! Gamma         !               0.0206527388834716 41.3054897115059 0.0206527397059594 41.3054897100982 
! Port Impedance50               0                50               0                

1.38             0.026025035203664 132.6128276101   0.984922334248512 42.1680644674637 0.984922334248491 42.1680644674639 0.0262625722770497 140.069995481322 
! Gamma         !               0.02095645566197 41.9129233837225 0.0209564564656046 41.9129233823382 
! Port Impedance50               0                50               0                

1.4              0.0240303520085702 128.36562348888  0.984710548728439 37.5668437604009 0.984710548728418 37.5668437604012 0.0242986269736835 136.283705430642 
! Gamma         !               0.0212601724849051 42.5203570559228 0.0212601732245496 42.5203570546415 
! Port Impedance50               0                50               0                

1.42             0.0219020767945675 124.174280171097 0.984499620125039 32.9652618165543 0.984499620125019 32.9652618165546 0.0222079362693342 132.696651338349 
! Gamma         !               0.0215638893354326 43.1277907281133 0.0215638899830977 43.1277907269855 
! Port Impedance50               0                50               0                

1.44             0.0196538885944397 120.052625983941 0.984288543014357 28.3633145639402 0.984288543014339 28.3633145639405 0.0200063246368197 129.374093283195 
! Gamma         !               0.0218676062002296 43.7352244002987 0.0218676067414771 43.7352243993516 
! Port Impedance50               0                50               0                

1.46             0.0172996755235154 116.023840135919 0.984076316934947 23.7610094145333 0.984076316934932 23.7610094145337 0.0177111435589444 126.419696251721 
! Gamma         !               0.0221713230691322 44.3426580724829 0.0221713234998528 44.3426580717257 
! Port Impedance50               0                50               0                

1.48             0.0148536368539857 112.129103658268 0.983861988504175 19.1583651892856 0.983861988504163 19.1583651892859 0.0153424608753224 124.006652154561 
! Gamma         !               0.0224750399347191 44.9500917446685 0.0224750402583377 44.950091744097  
! Port Impedance50               0                50               0                

1.5              0.0123304914097112 108.447170076913 0.983644691766529 14.5554113997918 0.98364469176652 14.5554113997921 0.0129255916752891 122.443047723653 
! Gamma         !               0.0227787567918826 45.5575254168575 0.022778757017003 45.5575254164581 
! Port Impedance50               0                50               0                

1.52             0.00974593365832242 105.145702387735 0.98342368385049 9.95218696628323 0.983423683850484 9.95218696628337 0.0104970634409466 122.322216798293 
! Gamma         !               0.0230824736374123 46.1649590890508 0.0230824737758875 46.1649590888038 
! Port Impedance50               0                50               0                

1.54             0.00711794490383132 102.647369716845 0.983198373701841 5.34873849131291 0.983198373701838 5.34873849131283 0.00812070327403792 124.903048142833 
! Gamma         !               0.02338619046961 46.7723927612494 0.0233861905350053 46.7723927611316 
! Port Impedance50               0                50               0                

1.56             0.00447251910497717 102.383881230539 0.982968342469993 0.745118232533203 0.982968342469988 0.745118232533517 0.00593778176576202 133.110704698693 
! Gamma         !               0.0236899072879437 47.3798264334532 0.0236899072943533 47.37982643344   
! Port Impedance50               0                50               0                

1.58             0.00189710166345344 113.643141413349 0.982733354963356 -3.85861807399819 0.982733354963359 -3.85861807399823 0.00432701541701326 153.118959526388 
! Gamma         !               0.0239936240927473 47.987260105662  0.0239936240539163 47.9872601057293 
! Port Impedance50               0                50               0                

1.6              0.00130991957972544 -137.543558231021 0.982493362379157 -8.4624133954573 0.982493362379162 -8.46241339545759 0.00407535768755224 -174.195591452006 
! Gamma         !               0.0242973408849643 48.5946937778756 0.0242973408136714 48.5946937780005 
! Port Impedance50               0                50               0                

1.62             0.00377693396827348 -114.554986982729 0.982248497180703 -13.0662114640037 0.982248497180708 -13.066211464004 0.00536909222332289 -149.714458743212 
! Gamma         !               0.0246010576659367 49.2021274500932 0.0246010575735915 49.2021274502551 
! Port Impedance50               0                50               0                

1.64             0.00638718560223963 -113.568920723806 0.981999061487771 -17.6699586228908 0.981999061487776 -17.6699586228912 0.00741153353113315 -138.939975788889 
! Gamma         !               0.0249047744372335 49.8095611223144 0.024904774333648 49.8095611224955 
! Port Impedance50               0                50               0                

1.66             0.0089719323308397 -115.720652015694 0.981745510627542 -22.2736053957465 0.981745510627548 -22.273605395747 0.00970098760547299 -135.206260600412 
! Gamma         !               0.0252084912005173 50.4169947945385 0.025208491093813 50.416994794724  
! Port Impedance50               0                50               0                

1.68             0.011497766000602 -118.883271254901 0.981488433556422 -26.8771077533781 0.981488433556427 -26.8771077533787 0.0120498582846195 -134.779810646091 
! Gamma         !               0.0255122079574411 51.0244284667648 0.0255122078540599 51.0244284669427 
! Port Impedance50               0                50               0                

1.7              0.0139431151751976 -122.494542563137 0.981228531722223 -31.4804280847735 0.981228531722228 -31.480428084774 0.0143772814007262 -136.067485264467 
! Gamma         !               0.0258159247095749 51.6318621389927 0.0258159246143651 51.6318621391541 
! Port Impedance50               0                50               0                

1.72             0.0162892659756062 -126.341423670542 0.980966597631463 -36.0835359043879 0.980966597631467 -36.0835359043885 0.0166384566244257 -138.337626749951 
! Gamma         !               0.026119641458354 52.2392958112218 0.0261196413747077 52.2392958113601 
! Port Impedance50               0                50               0                

1.74             0.0185188096951316 -130.324464059369 0.980703493976031 -40.6864083437721 0.980703493976035 -40.6864083437726 0.0188029232056141 -141.217749874932 
! Gamma         !               0.026423358205047 52.8467294834514 0.0264233581350704 52.8467294835628 
! Port Impedance50               0                50               0                

1.76             0.0206153491604909 -134.390073417395 0.980440133725759 -45.2890304809366 0.980440133725762 -45.2890304809371 0.0208470318445378 -144.500558469575 
! Gamma         !               0.0267270749507391 53.4541631556811 0.0267270748954391 53.4541631557638 
! Port Impedance50               0                50               0                

1.78             0.0225635207375106 -138.505990294207 0.980177461178025 -49.8913955559423 0.980177461178026 -49.8913955559427 0.0227510228179342 -148.062022746034 
! Gamma         !               0.0270307916963274 54.0615968279107 0.0270307916558027 54.0615968279645 
! Port Impedance50               0                50               0                

1.8              0.0243491072322027 -142.650908811104 0.979916433632784 -54.4935051078431 0.979916433632785 -54.4935051078435 0.0244978036066225 -151.823443775225 
! Gamma         !               0.0273345084425248 54.6690305001399 0.027334508416153 54.669030500166  
! Port Impedance50               0                50               0                

1.82             0.0259591702014235 -146.809566818229 0.979658003174619 -59.0953690492066 0.97965800317462 -59.0953690492068 0.0260724194195416 -155.732434312639 
! Gamma         !               0.0276382251898713 55.2764641723684 0.0276382251764844 55.2764641723693 
! Port Impedance50               0                50               0                

1.84             0.0273821736907871 -150.970201898408 0.979403098012673 -63.6970056735504 0.979403098012675 -63.6970056735505 0.0274618240641887 -159.752729917637 
! Gamma         !               0.0279419419387488 55.8838978445961 0.0279419419367936 55.8838978445748 
! Port Impedance50               0                50               0                

1.86             0.028608087152792 -155.123124747489 0.979152602950764 -68.298441571798 0.979152602950765 -68.2984415717979 0.028654782524308 -163.85842052387 
! Gamma         !               0.0282456586893997 56.491331516823  0.0282456586970787 56.4913315167832 
! Port Impedance50               0                50               0                

1.88             0.0296284625521092 -159.25985067292 0.978907338806793 -72.8997114194416 0.978907338806794 -72.8997114194415 0.0296418274502025 -168.030529178273 
! Gamma         !               0.0285493754419458 57.098765189049  0.0285493754573398 57.0987651889946 
! Port Impedance50               0                50               0                

1.9              0.0304364848528075 -163.372516395834 0.978668040929634 -77.5008575888082 0.978668040929635 -77.500857588808 0.0304152323036502 -172.254900668779 
! Gamma         !               0.0288530921964087 57.7061988612741 0.0288530922175777 57.7061988612091 
! Port Impedance50               0                50               0                

1.92             0.0310269979192495 -167.453437219152 0.978435337319975 -82.1019295417801 0.978435337319977 -82.1019295417798 0.030968983584598 -176.520852856798 
! Gamma         !               0.0291568089527288 58.3136325334983 0.0291568089777943 58.3136325334266 
! Port Impedance50               0                50               0                

1.94             0.0313965099486124 -171.494719299931 0.978209727195144 -86.7029829674588 0.978209727195147 -86.7029829674585 0.031298744819529 179.179711146948 
! Gamma         !               0.0294605257107833 58.9210662057217 0.029460525737992 58.9210662056469 
! Port Impedance50               0                50               0                

1.96             0.0315431841402295 -175.487869200185 0.977991561099052 -91.3040786453834 0.977991561099054 -91.304078645383 0.0314018105787837 174.852902733612 
! Gamma         !               0.0297642424704035 59.5284998779445 0.0297642424981736 59.5284998778698 
! Port Impedance50               0                50               0                

1.98             0.0314668215582707 -179.423353052226 0.977781023810957 -95.9052810359966 0.97778102381096 -95.9052810359963 0.0312770518452113 170.503261130705 
! Gamma         !               0.0300679592313892 60.1359335501667 0.0300679592583418 60.1359335500951 
! Port Impedance50               0                50               0                

2                0.0311688442397218 176.709943503853 0.977578121330772 -100.506656623541 0.977578121330775 -100.506656623541 0.0309248556072225 166.134040965353 
! Gamma         !               0.0303716759935224 60.7433672223883 0.0303716760184999 60.7433672223223 
! Port Impedance50               0                50               0                

2.02             0.0306522877988257 172.925414647588 0.977382673109574 -105.108272059765 0.977382673109578 -105.108272059764 0.0303470621376748 161.747409726314 
! Gamma         !               0.0306753927565774 61.3508008946094 0.0306753927786504 61.350800894551  
! Port Impedance50               0                50               0                

2.04             0.0299218144898078 169.239676131532 0.977194310463401 -109.710192177182 0.977194310463403 -109.710192177182 0.0295469033650043 157.344574277907 
! Gamma         !               0.0309791095203309 61.9582345668303 0.030979109538796 61.9582345667809 
! Port Impedance50               0                50               0                

2.06             0.0289837605811844 165.673873077292 0.977012481779541 -114.31247795612 0.977012481779544 -114.31247795612 0.0285289452573695 152.925842959109 
! Gamma         !               0.0312828262845691 62.565668239051  0.0312828262989391 62.5656682390117 
! Port Impedance50               0                50               0                

2.08             0.0278462371160912 162.255545786965 0.976836464730061 -118.91518453883 0.976836464730063 -118.91518453883 0.0272990363834066 148.490617624531 
! Gamma         !               0.0315865430490931 63.1731019112716 0.0315865430590816 63.1731019112431 
! Port Impedance50               0                50               0                

2.1              0.0265193127455964 159.021361213552 0.976665385284033 -123.518359385903 0.976665385284036 -123.518359385903 0.0258642639171746 144.037294432306 
! Gamma         !               0.0318902598137232 63.7805355834922 0.0318902598192253 63.7805355834746 
! Port Impedance50               0                50               0                

2.12             0.0250153251896442 156.021216056772 0.976498242895954 -128.12204066492 0.976498242895955 -128.12204066492 0.0242329174430465 139.563027099282 
! Gamma         !               0.0321939765783018 64.3879692557127 0.0321939765793716 64.3879692557061 
! Port Impedance50               0                50               0                

2.14             0.0233494015286437 153.324562566171 0.976333940878192 -132.726255949436 0.97633394087819 -132.726255949436 0.0224144601238109 135.063259169009 
! Gamma         !               0.0324976933426949 64.9954029279335 0.0324976933395215 64.9954029279372 
! Port Impedance50               0                50               0                

2.16             0.0215403321044696 151.030414083132 0.976171320669472 -137.331021289106 0.97617132066947 -137.331021289106 0.0204195063133462 130.530833346958 
! Gamma         !               0.0328014101067923 65.6028366001544 0.0328014100996757 65.6028366001679 
! Port Impedance50               0                50               0                

2.18             0.0196120695101011 149.283541367359 0.976009198511048 -141.936340690701 0.976009198511045 -141.936340690701 0.0182598048938489 125.954260955842 
! Gamma         !               0.033105126870508 66.2102702723754 0.0331051268598346 66.2102702723979 
! Port Impedance50               0                50               0                

2.2              0.017596377345241 148.301097685238 0.975846402949506 -146.542206026787 0.975846402949501 -146.542206026787 0.0159482294330291 121.31416836887  
! Gamma         !               0.0334088436337787 66.8177039445968 0.0334088436199985 66.8177039446271 
! Port Impedance50               0                50               0                

2.22             0.0155376588458836 148.416136578818 0.975681811602295 -151.148597365815 0.975681811602289 -151.148597365815 0.013498782605442 116.575335001677 
! Gamma         !               0.0337125603965624 67.4251376168184 0.0337125603801674 67.4251376168555 
! Port Impedance50               0                50               0                

2.24             0.013501941621054 150.144172629781 0.975514385741296 -155.755483696329 0.975514385741288 -155.755483696329 0.010926644212331 111.666452738646 
! Gamma         !               0.0340162771588369 68.0325712890403 0.0340162771403411 68.0325712890829 
! Port Impedance50               0                50               0                

2.26             0.0115932844771824 154.259089884898 0.975343201454278 -160.362824000309 0.975343201454269 -160.362824000309 0.00824838202938323 106.418150749653 
! Gamma         !               0.0343199939205971 68.6400049612624 0.0343199939005192 68.6400049613095 
! Port Impedance50               0                50               0                

2.28             0.00997969734046617 161.758896615225 0.975167476410048 -164.970568617733 0.975167476410039 -164.970568617734 0.00548295593290609 100.307142469095 
! Gamma         !               0.0346237106818532 69.247438633485  0.0346237106607013 69.2474386335352 
! Port Impedance50               0                50               0                

2.3              0.00891257936839343 173.295719044435 0.97498659155208 -169.578660836707 0.974986591552069 -169.578660836707 0.00265963427090105 90.5451966314722 
! Gamma         !               0.034927427442628 69.8548723057077 0.0349274274208868 69.85487230576   
! Port Impedance50               0                50               0                

2.32             0.00866740950353599 -172.329941486127 0.974800107347549 -174.187038641217 0.974800107347537 -174.187038641217 0.000552709712663482 -24.4491769739066 
! Gamma         !               0.0352311442029549 70.4623059779307 0.0352311441810753 70.462305977984  
! Port Impedance50               0                50               0                

2.34             0.00935200257315845 -158.6420010433  0.974607774496103 -178.795636551095 0.974607774496091 -178.795636551095 0.00325381498136609 -79.6932187183144 
! Gamma         !               0.0355348609628753 71.069739650154  0.0355348609412662 71.0697396502072 
! Port Impedance50               0                50               0                

2.36             0.0108073457195137 -148.528738403501 0.974409539232602 176.595612504808 0.97440953923259 176.595612504808 0.00618915603413299 -88.1398845604168 
! Gamma         !               0.0358385777224364 71.6771733223776 0.0358385777014587 71.6771733224299 
! Port Impedance50               0                50               0                

2.38             0.0127685182658556 -142.345581348234 0.974205543525571 171.986775332298 0.974205543525559 171.986775332299 0.00913135474154932 -94.0173725665877 
! Gamma         !               0.0361422944816896 72.2846069946014 0.0361422944616525 72.2846069946519 
! Port Impedance50               0                50               0                

2.4              0.0150197066463133 -139.191152293705 0.973996120572362 167.377916672477 0.97399612057235 167.377916672477 0.0120524191887528 -99.199361630668 
! Gamma         !               0.036446011240688 72.8920406668254 0.0364460112218469 72.8920406668736 
! Port Impedance50               0                50               0                

2.42             0.0174190216714509 -138.121551196522 0.97378178602719 162.769097489988 0.973781786027179 162.769097489988 0.0149303877610742 -104.093715128637 
! Gamma         !               0.0367497279994856 73.4994743390495 0.0367497279820414 73.499474339095  
! Port Impedance50               0                50               0                

2.44             0.0198753670663352 -138.459115271869 0.973563225381404 158.160373371743 0.973563225381395 158.160373371744 0.0177444939924073 -108.840519962315 
! Gamma         !               0.0370534447581352 74.1069080112739 0.0370534447422357 74.106908011316  
! Port Impedance50               0                50               0                

2.46             0.0223270844351833 -139.760028614938 0.973341277865562 153.551793053724 0.973341277865553 153.551793053724 0.02047454881843 -113.500353736072 
! Gamma         !               0.0373571615166875 74.7143416834983 0.0373571615024295 74.714341683537  
! Port Impedance50               0                50               0                

2.48             0.024729259062268 -141.736710640853 0.973116917181564 148.943397091076 0.973116917181555 148.943397091076 0.0231008993302605 -118.103302092663 
! Gamma         !               0.03766087827519 75.3217753557229 0.0376608782626223 75.3217753557578 
! Port Impedance50               0                50               0                

2.5              0.027046866573765 -144.199659755502 0.972891229321734 144.33521668695  0.972891229321727 144.33521668695  0.0256045158040808 -122.665691290637 
! Gamma         !               0.0379645950336864 75.9292090279475 0.0379645950228141 75.9292090279787 
! Port Impedance50               0                50               0                

2.52             0.0292511094735027 -147.020761391487 0.972665387707973 139.727272697788 0.972665387707966 139.727272697788 0.0279671112794811 -127.196888218489 
! Gamma         !               0.0382683117922159 76.5366427001722 0.0382683117830046 76.5366427001997 
! Port Impedance50               0                50               0                

2.54             0.0313174277009628 -150.110986450494 0.972440625899214 135.119574836034 0.972440625899208 135.119574836034 0.0301712654461039 -131.702424134725 
! Gamma         !               0.0385720285508127 77.144076372397  0.0385720285431937 77.1440763724208 
! Port Impedance50               0                50               0                

2.56             0.0332243953557167 -153.406782948143 0.972218208173534 130.512121094388 0.972218208173529 130.512121094388 0.0322005424818224 -136.185564046689 
! Gamma         !               0.0388757453095058 77.7515100446218 0.0388757453033815 77.7515100446422 
! Port Impedance50               0                50               0                

2.58             0.0349530973952963 -156.861613747561 0.971999398388072 125.904897417625 0.971999398388067 125.904897417625 0.0340395986163533 -140.648147783523 
! Gamma         !               0.039179462068319 78.3589437168467 0.0391794620635679 78.3589437168638 
! Port Impedance50               0                50               0                

2.6              0.0364867728425698 -160.440563798092 0.971785427644909 121.297877647739 0.971785427644905 121.297877647739 0.0356742778655083 -145.09105960008 
! Gamma         !               0.039483178827271 78.9663773890715 0.039483178823753 78.9663773890857 
! Port Impedance50               0                50               0                

2.62             0.0378106093285954 -164.11681054907 0.971577461428398 116.691023765122 0.971577461428396 116.691023765122 0.0370916958128608 -149.514493319462 
! Gamma         !               0.039786895586375 79.5738110612964 0.039786895583937 79.5738110613079 
! Port Impedance50               0                50               0                

2.64             0.0389116252508736 -167.869248081634 0.971376567011194 112.084286442458 0.97137656701119 112.084286442458 0.0382803121882042 -153.918096002863 
! Gamma         !               0.0400906123456397 80.1812447335212 0.0400906123441199 80.1812447335305 
! Port Impedance50               0                50               0                
