! Touchstone file exported from HFSS 2018.2.0
!        File:           C:/Users/10024/OneDrive - The University of Nottingham Ningbo China/Year 4/Final Year Project/HFSS project/Patch-1.aedt
!        Generated:      4:48:15 下午  3月 10, 2022
!        Design:         SMA_workbench
!        Project:        Patch-1
!        Setup:          Setup1
!        Solution:       Sweep
!
! Variables:
!        MW = 1.992mm
!        ThruL = 150mm
!        g = 0.2mm
!        subH = 0.8mm
!        subX = 20mm
!        subY = 160mm
!
# GHZ S MA R 50.000000
! Modal data exported
! Port[1] = SMA_CONNECTOR1_1:1
! Port[2] = SMA_CONNECTOR2_1:1
1                0.0257286765973525 112.761814433054 0.985245821373957 34.1288952735635 0.985245821373956 34.1288952735634 0.0265730804529055 143.099779436229 
! Gamma         !               0.0151858380091312 30.371683611142  0.0151858380091311 30.3716836112034 
! Port Impedance50               0                50               0                

1.02             0.0210117061810154 104.620223499003 0.984959289268794 27.6144444002969 0.984959289268794 27.614444400297  0.0219962304027861 139.853350402561 
! Gamma         !               0.0154895550477351 30.9791172842773 0.0154895549004967 30.9791172834994 
! Port Impedance50               0                50               0                

1.04             0.0158822524925565 95.1387912243164 0.984654954321755 21.0988805832862 0.984654954321756 21.0988805832864 0.0170903489339334 138.838315013001 
! Gamma         !               0.0157932718841091 31.5865509567452 0.0157932716857513 31.5865509557164 
! Port Impedance50               0                50               0                

1.06             0.0104993585163166 82.3850631724303 0.984328903951389 14.5824603003352 0.984328903951389 14.5824603003352 0.0121783743309905 142.943567076266 
! Gamma         !               0.0160969886119191 32.1939846288642 0.0160969884220789 32.1939846279064 
! Port Impedance50               0                50               0                

1.08             0.00527756099388431 56.354901276332  0.983977684265172 8.0654480339069  0.983977684265172 8.06544803390692 0.00806627875890518 160.369791298014 
! Gamma         !               0.0164007052914196 32.8014183008343 0.0164007051421132 32.8014183000956 
! Port Impedance50               0                50               0                

1.1              0.00359226768302055 -31.6238604213928 0.983598346893524 1.54814452712743 0.983598346893528 1.54814452712774 0.00703906831794317 -160.546669754652 
! Gamma         !               0.0167044219593491 33.4088519727738 0.0167044218628641 33.4088519722951 
! Port Impedance50               0                50               0                

1.12             0.00827209582799577 -77.6059492938341 0.98318884188619 -4.96909850698208 0.983188841886189 -4.96909850698198 0.0102011513777904 -132.46925251488 
! Gamma         !               0.0170081386362864 34.0162856447461 0.0170081385918074 34.0162856445071 
! Port Impedance50               0                50               0                

1.14             0.0138939555424673 -93.553484409996 0.982748526049318 -11.4858839877325 0.982748526049318 -11.4858839877325 0.0150592719104649 -123.570212162264 
! Gamma         !               0.0173118553320453 34.6237193167793 0.0173118553309407 34.6237193167297 
! Port Impedance50               0                50               0                

1.16             0.0195343194739494 -103.971036986338 0.982278568933377 -18.0017935180538 0.982278568933376 -18.0017935180538 0.0203112733748329 -122.376187865717 
! Gamma         !               0.0176155720495682 35.2311529888794 0.0176155720794064 35.2311529889593 
! Port Impedance50               0                50               0                

1.18             0.0250164498226032 -112.566714791799 0.981782117699974 -24.5164225109124 0.981782117699972 -24.5164225109124 0.0255636750908512 -124.310250165169 
! Gamma         !               0.0179192887876817 35.8385866610401 0.017919288835119 35.8385866611921 
! Port Impedance50               0                50               0                

1.2              0.0302491557188705 -120.345669529811 0.98126417955332 -31.0294172873541 0.981264179553317 -31.0294172873541 0.0306510563339847 -127.745464343004 
! Gamma         !               0.0182230055429999 36.4460203332493 0.018223005595719 36.4460203334249 
! Port Impedance50               0                50               0                

1.22             0.0351630948957221 -127.693087469919 0.980731261962693 -37.5405062982697 0.980731261962692 -37.5405062982697 0.0354730198947484 -132.006166398483 
! Gamma         !               0.0185267223111937 37.0534540054925 0.0185267223590793 37.0534540056554 
! Port Impedance50               0                50               0                

1.24             0.0396971526582036 -134.790701143744 0.980190860223996 -44.0495205573752 0.980190860223995 -44.0495205573752 0.0399517377512675 -136.769578499622 
! Gamma         !               0.0188304390878008 37.6608876777562 0.0188304391235301 37.6608876778826 
! Port Impedance50               0                50               0                

1.26             0.0437942926403857 -141.736348687839 0.979650896565137 -50.5564017647385 0.979650896565136 -50.5564017647385 0.0440189944143132 -141.862672716324 
! Gamma         !               0.0191341558687033 38.2683213500286 0.0191341558879107 38.2683213501059 
! Port Impedance50               0                50               0                

1.28             0.0474006186787387 -148.586947380315 0.979119200815045 -57.0611995252554 0.979119200815044 -57.0611995252554 0.0476126211658402 -147.182640898742 
! Gamma         !               0.0194378726503732 38.8757550223004 0.0194378726515274 38.8757550223258 
! Port Impedance50               0                50               0                

1.3              0.0504660325772399 -155.37668322831 0.978603089821031 -63.5640609375546 0.97860308982103 -63.5640609375546 0.0506765494941763 -152.662185646728 
! Gamma         !               0.0197415894299584 39.4831886945651 0.0197415894140655 39.4831886945428 
! Port Impedance50               0                50               0                

1.32             0.0529457467375184 -162.125884063021 0.978109063418747 -70.06521639625  0.978109063418746 -70.06521639625  0.0531622454386606 -158.253211721272 
! Gamma         !               0.0200453062052633 40.0906223668187 0.0200453061754879 40.0906223667579 
! Port Impedance50               0                50               0                

1.34             0.0548021127863554 -168.845991875087 0.977642600640179 -76.5649648058117 0.977642600640178 -76.5649648058118 0.0550303950891872 -163.918802126356 
! Gamma         !               0.0203490229746643 40.6980560390594 0.0203490229359381 40.6980560389723 
! Port Impedance50               0                50               0                

1.36             0.0560063204114275 -175.542736219247 0.977208019978566 -83.063659947179 0.977208019978566 -83.063659947179 0.0562522042352317 -169.629134434803 
! Gamma         !               0.0206527397369953 41.3054897112873 0.020652739695657 41.3054897111867 
! Port Impedance50               0                50               0                

1.38             0.0565396289764262 177.781630474948 0.976808365792006 -89.5616980632274 0.976808365792005 -89.5616980632275 0.0568099968743313 -175.359274828508 
! Gamma         !               0.0209564564914452 41.9129233835041 0.0209564564549191 41.9129233834022 
! Port Impedance50               0                50               0                

1.4              0.056393935501777 171.126681798211 0.976445297108989 -96.0595054387319 0.976445297108989 -96.0595054387319 0.0566970509556586 178.912220158752 
! Gamma         !               0.0212601732375479 42.5203570557129 0.0212601732139857 42.5203570556193 
! Port Impedance50               0                50               0                

1.42             0.0555716387464688 164.492612506816 0.976118977982706 -102.557524256709 0.976118977982705 -102.557524256709 0.0559168038551835 173.204499798902 
! Gamma         !               0.0215638899754502 43.1277907279186 0.0215638899730765 43.1277907278385 
! Port Impedance50               0                50               0                

1.44             0.054084902062132 157.879432440697 0.975827990764965 -109.056195413067 0.975827990764964 -109.056195413067 0.0544816833635563 167.53580057292  
! Gamma         !               0.0218676067068276 43.7352244001272 0.0218676067323541 43.7352244000599 
! Port Impedance50               0                50               0                

1.46             0.0519545213553125 151.286546824047 0.975569307149667 -115.555938047031 0.975569307149667 -115.555938047031 0.0524118675746507 161.925326346243 
! Gamma         !               0.0221713234368033 44.3426580723457 0.0221713234919198 44.3426580722836 
! Port Impedance50               0                50               0                

1.48             0.0492086530901281 144.712725311199 0.975338352308581 -122.057126875526 0.97533835230858 -122.057126875526 0.0497342581683384 156.395994386033 
! Gamma         !               0.0224750401756521 44.9500917445776 0.0224750402518175 44.9500917445094 
! Port Impedance50               0                50               0                

1.5              0.0458816482373383 138.156480358358 0.975129185294376 -128.560069549281 0.975129185294374 -128.560069549281 0.0464818885972646 150.978646873812 
! Gamma         !               0.0227787569349509 45.5575254168166 0.0227787570120423 45.5575254167371 
! Port Impedance50               0                50               0                

1.52             0.0420131806473927 131.616924789184 0.974934798302132 -135.064986830966 0.974934798302133 -135.064986830966 0.0426939151287277 145.718905544501 
! Gamma         !               0.0230824737158905 46.1649590890477 0.0230824737725517 46.1649590889663 
! Port Impedance50               0                50               0                

1.54             0.0376477694182618 125.095314028508 0.974747514534832 -141.571998279091 0.974747514534832 -141.571998279091 0.0384163037201893 140.689218660139 
! Gamma         !               0.0233861905058682 46.7723927612615 0.0233861905332783 46.7723927611966 
! Port Impedance50               0                50               0                

1.56             0.032834694769951 118.59785192039  0.974559445521915 -148.081115358596 0.974559445521914 -148.081115358596 0.0337034218597672 136.012079523636 
! Gamma         !               0.0236899072916513 47.3798264334619 0.0236899072941415 47.3798264334274 
! Port Impedance50               0                50               0                

1.58             0.0276282170800655 112.141451915396 0.974362958491418 -154.592242707869 0.974362958491418 -154.592242707869 0.0286212164321546 131.90982709503  
! Gamma         !               0.0239936240682927 47.987260105658  0.0239936240550579 47.9872601056585 
! Port Impedance50               0                50               0                

1.6              0.0220879546491714 105.767997680944 0.974151105014475 -161.105186986134 0.974151105014476 -161.105186986134 0.0232543556858002 128.825886371629 
! Gamma         !               0.0242973408366973 48.5946937778562 0.0242973408159501 48.5946937778892 
! Port Impedance50               0                50               0                

1.62             0.0162793173302857 99.5894677595503 0.973917972980335 -167.619671634432 0.973917972980335 -167.619671634432 0.017726338881897 127.77026076544  
! Gamma         !               0.0246010575994075 49.2021274500597 0.0246010575767528 49.2021274501195 
! Port Impedance50               0                50               0                

1.64             0.0102743989851723 93.9935278669127 0.973658941699674 -174.135355271977 0.973658941699674 -174.135355271977 0.0122737999494194 131.516414189423 
! Gamma         !               0.0249047743586984 49.8095611222695 0.0249047743374168 49.8095611223488 
! Port Impedance50               0                50               0                

1.66             0.00416096018902963 91.6720650414504 0.973370839390399 179.348148554831 0.973370839390404 179.348148554831 0.00761662254655117 149.274603501283 
! Gamma         !               0.0252084911161812 50.4169947944853 0.0252084910979113 50.416994794577  
! Port Impedance50               0                50               0                

1.68             0.00212077906086954 -117.035715631582 0.973052017840947 172.831252002813 0.973052017840947 172.831252002813 0.00637612215639148 -165.301055436518 
! Gamma         !               0.0255122078728953 51.0244284667065 0.0255122078582237 51.0244284668041 
! Port Impedance50               0                50               0                

1.7              0.00821220016103677 -112.929601113437 0.972702366340536 166.314374792585 0.972702366340536 166.314374792585 0.0099478343998481 -134.76928532226 
! Gamma         !               0.0258159246294751 51.6318621389322 0.0258159246183582 51.6318621390299 
! Port Impedance50               0                50               0                

1.72             0.0142290111684917 -118.120436901836 0.972323284516481 159.797927268663 0.972323284516481 159.797927268663 0.0151441618706162 -126.502119088639 
! Gamma         !               0.0261196413862864 52.2392958111614 0.0261196413783338 52.2392958112544 
! Port Impedance50               0                50               0                

1.74             0.0200518558552141 -124.275053495799 0.971917623506049 153.282294070205 0.971917623506049 153.282294070205 0.0206038575904852 -125.832137972806 
! Gamma         !               0.0264233581435208 52.8467294833931 0.0264233581381804 52.8467294834778 
! Port Impedance50               0                50               0                

1.76             0.0256011297634076 -130.731535955001 0.971489591710931 146.767817785089 0.971489591710931 146.767817785089 0.0259608899408776 -128.046825196552 
! Gamma         !               0.0267270749012585 53.4541631556266 0.0267270748979358 53.4541631557001 
! Port Impedance50               0                50               0                

1.78             0.0308048931231495 -137.323401679024 0.971044611036218 140.25478243676  0.971044611036217 140.25478243676  0.031058651037417 -131.590165854966 
! Gamma         !               0.0270307916595092 54.0615968278611 0.0270307916576411 54.0615968279216 
! Port Impedance50               0                50               0                

1.8              0.035598329083011 -143.990156385847 0.970589106572516 133.743397444146 0.970589106572516 133.743397444146 0.0358011055908665 -135.828126486896 
! Gamma         !               0.02733450841824 54.6690305000959 0.0273345084173381 54.6690305001424 
! Port Impedance50               0                50               0                

1.82             0.0399241757787722 -150.706547368068 0.970130218798787 127.233783485324 0.970130218798786 127.233783485324 0.040117736574294 -140.457378968777 
! Gamma         !               0.0276382251773938 55.2764641723304 0.027638225177065 55.2764641723627 
! Port Impedance50               0                50               0                

1.84             0.0437329044330062 -157.462839520223 0.969675440870001 120.725962178381 0.969675440870001 120.725962178381 0.0439525837843322 -145.314514584721 
! Gamma         !               0.0279419419369021 55.8838978445642 0.0279419419368548 55.8838978445828 
! Port Impedance50               0                50               0                

1.86             0.046982571062006 -164.257769105909 0.969232200217148 114.219851475923 0.969232200217147 114.219851475923 0.0472599379426729 -150.302641461037 
! Gamma         !               0.0282456586966935 56.4913315167969 0.0282456586967322 56.4913315168029 
! Port Impedance50               0                50               0                

1.88             0.0496384647758793 -171.095539675379 0.968807418478813 107.715268128158 0.968807418478812 107.715268128158 0.0500023748745194 -155.358869638981 
! Gamma         !               0.0285493754566992 57.0987651890285 0.0285493754567129 57.0987651890232 
! Port Impedance50               0                50               0                

1.9              0.0516727263763761 -177.98436567215 0.968407092464348 101.211937635756 0.968407092464348 101.211937635756 0.0521498878370165 -160.438066241629 
! Gamma         !               0.0288530922168567 57.7061988612586 0.0288530922168028 57.7061988612439 
! Port Impedance50               0                50               0                

1.92             0.0530641062555281 175.06425397563  0.968035939106047 94.7095110205567 0.968035939106046 94.7095110205567 0.0536797280093178 -165.503763243253 
! Gamma         !               0.0291568089771121 58.3136325334873 0.029156808976998 58.3136325334651 
! Port Impedance50               0                50               0                

1.94             0.0537979921473831 168.035787308175 0.967697139169985 88.2075867498669 0.967697139169985 88.2075867498669 0.054576806785273 -170.522427408791 
! Gamma         !               0.0294605257374208 58.9210662057147 0.0294605257372853 58.9210662056869 
! Port Impedance50               0                50               0                

1.96             0.053866778568255 160.912467977661 0.967392199866823 81.7057354811893 0.967392199866823 81.7057354811893 0.0548345656336129 -175.459334595673 
! Gamma         !               0.0297642424977478 59.5284998779407 0.0297642424976436 59.5284998779095 
! Port Impedance50               0                50               0                

1.98             0.0532705838363062 153.672530541656 0.967120938830463 75.2035250873208 0.967120938830462 75.2035250873208 0.0544562126593182 179.724884891112 
! Gamma         !               0.0300679592580674 60.1359335501656 0.0300679592580456 60.1359335501328 
! Port Impedance50               0                50               0                

2                0.0520182612512508 146.288650572346 0.96688157520912 68.700543706536  0.96688157520912 68.700543706536  0.0534562131925421 175.077637983829 
! Gamma         !               0.0303716760183619 60.7433672223894 0.0303716760184596 60.743367222357  
! Port Impedance50               0                50               0                

2.02             0.0501286138984207 138.725189822682 0.966670901588893 62.1964192536756 0.966670901588894 62.1964192536756 0.0518619337141453 170.658218870961 
! Gamma         !               0.0306753927786213 61.3508008946124 0.030675392778852 61.3508008945818 
! Port Impedance50               0                50               0                

2.04             0.0476317266247468 130.933559301614 0.966484505801662 55.6908347391973 0.966484505801662 55.6908347391973 0.0497153953159482 166.542688829851 
! Gamma         !               0.0309791095388414 61.9582345668349 0.0309791095391894 61.9582345668074 
! Port Impedance50               0                50               0                

2.06             0.0445704006839041 122.844474806925 0.966317015178286 49.1835396254463 0.966317015178286 49.1835396254462 0.0470752137804542 162.830493323019 
! Gamma         !               0.0312828262990229 62.5656682390569 0.0312828262994411 62.5656682390336 
! Port Impedance50               0                50               0                

2.08             0.0410018620173671 114.35482193038  0.966162346049871 42.6743580517912 0.966162346049871 42.6743580517912 0.0440190067014721 159.653667045302 
! Gamma         !               0.0315865430591702 63.1731019112787 0.0315865430595814 63.1731019112602 
! Port Impedance50               0                50               0                

2.1              0.0370003090155121 105.304702105147 0.966013954711561 36.1631949055852 0.966013954711562 36.1631949055853 0.0406468452187067 157.189376759876 
! Gamma         !               0.0318902598192901 63.7805355835005 0.0318902598195914 63.7805355834873 
! Port Impedance50               0                50               0                

2.12             0.032661701067222 95.4358123198639 0.965865097849957 29.650040366357  0.965865097849957 29.650040366357  0.0370866854245363 155.675394603332 
! Gamma         !               0.0321939765793908 64.3879692557223 0.0321939765794613 64.3879692557145 
! Port Impedance50               0                50               0                

2.14             0.0281140546970413 84.3135050409293 0.965709116057764 23.1349728360151 0.965709116057766 23.1349728360151 0.0335029014816393 155.423532433444 
! Gamma         !               0.032497693339481 64.9954029279444 0.0324976933391912 64.9954029279418 
! Port Impedance50               0                50               0                

2.16             0.023540852380582 71.180937648874  0.965539750858143 16.6181593557544 0.965539750858142 16.6181593557544 0.0301081378425157 156.812502220252 
! Gamma         !               0.0328014100995694 65.6028366001668 0.0328014100987925 65.6028366001689 
! Port Impedance50               0                50               0                

2.18             0.0192344042779481 54.7210193920978 0.965351493956769 10.0998520212325 0.96535149395677 10.0998520212325 0.0271739847350851 160.211471036604 
! Gamma         !               0.0331051268596637 66.2102702723896 0.0331051268582882 66.2102702723958 
! Port Impedance50               0                50               0                

2.2              0.0157030542129176 32.9488661703101 0.965139950596526 3.58037880380537 0.96513995059653 3.58037880380546 0.0250228269441401 165.754368692061 
! Gamma         !               0.0334088436197704 66.8177039446129 0.0334088436177131 66.8177039446223 
! Port Impedance50               0                50               0                

2.22             0.0137636008808494 4.69657178711957 0.964902182255313 -2.93987232171867 0.964902182255314 -2.93987232171851 0.0239662461931089 172.970514115979 
! Gamma         !               0.0337125603798946 67.4251376168366 0.0337125603771131 67.4251376168483 
! Port Impedance50               0                50               0                

2.24             0.0141537766191823 -26.0042328137206 0.964636983060178 -9.4604760318576 0.964636983060178 -9.4604760318576 0.0241783796111835 -179.372710640182 
! Gamma         !               0.0340162771400398 68.0325712890607 0.0340162771365443 68.0325712890736 
! Port Impedance50               0                50               0                

2.26             0.0166589138598672 -52.0278403476692 0.964345043177497 -15.9809978930583 0.964345043177497 -15.9809978930583 0.0255929755560801 -172.746373282531 
! Gamma         !               0.0343199939002077 68.6400049612851 0.0343199938960711 68.6400049612983 
! Port Impedance50               0                50               0                

2.28             0.020392652577353 -71.6146934595927 0.964028962344703 -22.5010257447971 0.964028962344704 -22.5010257447971 0.0279415888858184 -168.067025303584 
! Gamma         !               0.0346237106603984 69.2474386335099 0.034623710655764 69.2474386335222 
! Port Impedance50               0                50               0                

2.3              0.0246386176632574 -86.617290019981 0.963693095962906 -29.0202009078845 0.963693095962907 -29.0202009078846 0.0308876779130221 -165.496482569384 
! Gamma         !               0.0349274274206107 69.854872305735  0.0349274274156966 69.8548723057453 
! Port Impedance50               0                50               0                

2.32             0.0289832283740546 -98.8242969690098 0.963343240784157 -35.5382456027034 0.963343240784158 -35.5382456027033 0.0341263597659909 -164.763336390504 
! Gamma         !               0.0352311441808421 70.4623059779602 0.0352311441759421 70.4623059779676 
! Port Impedance50               0                50               0                

2.34             0.0331855389719211 -109.332685506631 0.962986192006235 -42.0549833376771 0.962986192006236 -42.0549833376772 0.0374142066877976 -165.48506060133 
! Gamma         !               0.0355348609410891 71.0697396501854 0.0355348609365684 71.0697396501893 
! Port Impedance50               0                50               0                

2.36             0.0370874953699971 -118.771428690956 0.962629223329347 -48.5703500174345 0.962629223329347 -48.5703500174344 0.040562478918613 -167.316817911328 
! Gamma         !               0.0358385777013476 71.6771733224106 0.0358385776976335 71.6771733224104 
! Port Impedance50               0                50               0                

2.38             0.0405720955161488 -127.507916156383 0.962279552062995 -55.0843949367835 0.962279552062996 -55.0843949367835 0.0434225959504966 -169.987448267366 
! Gamma         !               0.0361422944616131 72.2846069946356 0.0361422944591786 72.284606994631  
! Port Impedance50               0                50               0                

2.4              0.043545171569766 -135.764348346267 0.961943850333898 -61.5972723917353 0.961943850333899 -61.5972723917353 0.0458744775638347 -173.292663873076 
! Gamma         !               0.0364460112218808 72.8920406668604 0.0364460112212216 72.8920406668514 
! Port Impedance50               0                50               0                

2.42             0.045927854412776 -143.679095669198 0.961627850788255 -68.1092260280594 0.961627850788255 -68.1092260280595 0.0478193904781744 -177.078555302856 
! Gamma         !               0.0367497279821463 73.4994743390849 0.036749727983749 73.4994743390716 
! Port Impedance50               0                50               0                

2.44             0.0476540389209414 -151.339528276171 0.961336073385341 -74.6205689517231 0.961336073385342 -74.6205689517231 0.0491763636224967 178.773702420058 
! Gamma         !               0.0370534447424054 74.106908011309  0.0370534447467071 74.106908011292  
! Port Impedance50               0                50               0                

2.46             0.0486702517784346 -158.800232387277 0.961071673763235 -81.1316628201211 0.961071673763237 -81.1316628201211 0.0498809195545571 174.359703012846 
! Gamma         !               0.0373571615026545 74.7143416835327 0.0373571615099942 74.7143416835127 
! Port Impedance50               0                50               0                

2.48             0.0489365727309809 -166.093509624839 0.960836389596831 -87.6428985509487 0.960836389596832 -87.6428985509487 0.0498850832831619 169.760641565898 
! Gamma         !               0.0376608782628907 75.321775355756  0.0376608782734528 75.321775355734  
! Port Impedance50               0                50               0                

2.5              0.0484277962044725 -173.235562190781 0.960630545840976 -94.1546800647961 0.960630545840976 -94.1546800647961 0.0491578950709148 165.050177286793 
! Gamma         !               0.0379645950231121 75.9292090279788 0.037964595036867 75.9292090279561 
! Port Impedance50               0                50               0                

2.52             0.0471342978538325 179.770006521332 0.960453077417917 -100.667410956793 0.960453077417915 -100.667410956793 0.0476858928286964 160.300506539403 
! Gamma         !               0.0382683117833175 76.5366427002011 0.0382683117999654 76.5366427001791 
! Port Impedance50               0                50               0                

2.54             0.0450622702455636 172.930758260736 0.960301539816077 -107.181482635365 0.960301539816077 -107.181482635365 0.04547325865209 155.58903301716  
! Gamma         !               0.0385720285435066 77.144076372423  0.0385720285624363 77.1440763724031 
! Port Impedance50               0                50               0                

2.56             0.0422331802524134 166.266219114372 0.960172100793088 -113.697261720828 0.960172100793088 -113.697261720828 0.0425415741454527 151.007670904944 
! Gamma         !               0.0388757453036799 77.7515100446445 0.0388757453239573 77.7515100446279 
! Port Impedance50               0                50               0                

2.58             0.0386824969273787 159.812100669124 0.960059532717545 -120.215074639412 0.960059532717544 -120.215074639412 0.0389294496664165 146.678525388141 
! Gamma         !               0.039179462063839 78.3589437168657 0.0391794620842426 78.3589437168535 
! Port Impedance50               0                50               0                

2.6              0.034457953482257 153.631261939484 0.959957246280854 -126.735188373875 0.959957246280855 -126.735188373875 0.0346928141032213 142.784092339909 
! Gamma         !               0.0394831788239857 78.9663773890867 0.0394831788431022 78.9663773890794 
! Port Impedance50               0                50               0                

2.62             0.0296178995510212 147.840540123113 0.959857415000711 -133.257787944072 0.959857415000711 -133.257787944072 0.0299078049933021 139.632151738565 
! Gamma         !               0.0397868955841226 79.5738110613075 0.0397868956005028 79.5738110613053 
! Port Impedance50               0                50               0                

2.64             0.0242309618826995 142.681840654176 0.95975123263758 -139.782952901952 0.95975123263758 -139.782952901952 0.0246815673568591 137.811945906375 
! Gamma         !               0.0400906123442527 80.1812447335282 0.0400906123566077 80.1812447335307 
! Port Impedance50               0                50               0                
