! Touchstone file exported from HFSS 2018.2.0
!        File:           C:/Users/10024/OneDrive - The University of Nottingham Ningbo China/Year 4/Final Year Project/HFSS project/Patch-1.aedt
!        Generated:      4:45:42 下午  3月 10, 2022
!        Design:         SMA_workbench
!        Project:        Patch-1
!        Setup:          Setup1
!        Solution:       Sweep
!
! Variables:
!        MW = 1.992mm
!        ThruL = 15mm
!        g = 0.2mm
!        subH = 0.8mm
!        subX = 20mm
!        subY = 25mm
!
# GHZ S MA R 50.000000
! Modal data exported
! Port[1] = SMA_CONNECTOR1_1:1
! Port[2] = SMA_CONNECTOR2_1:1
1                0.0304156179850161 -158.568377933269 0.997702905008516 -69.7364890466799 0.997702905008518 -69.7364890466799 0.0304128850221484 -159.653657106303 
! Gamma         !               0.0151858380091214 30.3716836112087 0.0151858380091398 30.3716836111935 
! Port Impedance50               0                50               0                

1.02             0.0308070874826546 -159.924129187988 0.997637942700019 -71.130397662898 0.99763794270002 -71.130397662898 0.0308020268908335 -160.925012975749 
! Gamma         !               0.0155028882436908 30.9791172564217 0.0155028882319505 30.979117252586  
! Port Impedance50               0                50               0                

1.04             0.0311832794925519 -161.284355249329 0.997572408467209 -72.5242860811559 0.99757240846721 -72.5242860811559 0.0311760874456483 -162.202600022102 
! Gamma         !               0.0158177206601008 31.5865509064235 0.0158177206388816 31.5865508994295 
! Port Impedance50               0                50               0                

1.06             0.0315438073946266 -162.648731316665 0.997506314557671 -73.9181551925209 0.997506314557672 -73.918155192521 0.0315346768070912 -163.485973065075 
! Gamma         !               0.016130607938935 32.1939845605629 0.0161306079101684 32.1939845509855 
! Port Impedance50               0                50               0                

1.08             0.0318882966441826 -164.016934930893 0.997439672831505 -75.3120058460952 0.997439672831506 -75.3120058460952 0.0318774175678538 -164.774696772584 
! Gamma         !               0.0164417919934989 32.8014182182756 0.0164417919588199 32.8014182066125 
! Port Impedance50               0                50               0                

1.1              0.0322163857988976 -165.388645575112 0.997372494884547 -76.7058388486484 0.997372494884548 -76.7058388486484 0.0322039457839584 -166.068344548785 
! Gamma         !               0.0167514874980447 33.4088518790685 0.0167514874588354 33.408851865751  
! Port Impedance50               0                50               0                

1.12             0.0325277275058609 -166.763544362932 0.997304792170017 -78.0996549650657 0.997304792170018 -78.0996549650657 0.0325139119289404 -167.366497578461 
! Gamma         !               0.0170598849783609 34.0162855425111 0.0170598849357871 34.016285527913  
! Port Impedance50               0                50               0                

1.14             0.0328219894432347 -168.141313802413 0.99723657611709 -79.4934549195966 0.997236576117091 -79.4934549195967 0.0328069818054016 -168.668744007239 
! Gamma         !               0.0173671535250747 34.623719208229  0.0173671534801184 34.623719192671  
! Port Impedance50               0                50               0                

1.16             0.0330988552113943 -169.52163762502 0.997167858244889 -80.8872393978796 0.99716785824489 -80.8872393978796 0.0330828374085989 -169.974678239541 
! Gamma         !               0.0176734431807696 35.2311528758949 0.0176734431342548 35.2311528596534 
! Port Impedance50               0                50               0                

1.18             0.0333580251686812 -170.904200670058 0.997098650270486 -82.2810090497083 0.997098650270487 -82.2810090497083 0.0333411777370259 -171.28390033833 
! Gamma         !               0.017978887044329 35.8385865452224 0.0179788869969446 35.8385865285343 
! Port Impedance50               0                50               0                

1.2              0.0335992172072631 -172.288688816068 0.997028964209542 -83.6747644924982 0.997028964209542 -83.6747644924982 0.0335817195453845 -172.596015512381 
! Gamma         !               0.018283603129496 36.4460202159624 0.0182836030818153 36.4460201990301 
! Port Impedance50               0                50               0                

1.22             0.0338221674649382 -173.674788951403 0.996958812468323 -85.0685063154022 0.996958812468323 -85.0685063154023 0.0338041980356788 -173.91063367837 
! Gamma         !               0.0185876960092637 37.0534538878958 0.0185876959617612 37.053453870891  
! Port Impedance50               0                50               0                

1.24             0.0340266309691349 -175.062188976889 0.99688820792591 -86.4622350840163 0.99688820792591 -86.4622350840163 0.0340083674826357 -175.227369086261 
! Gamma         !               0.0188912582731901 37.6608875608325 0.0188912582262554 37.6608875439    
! Port Impedance50               0                50               0                

1.26             0.0342123822097819 -176.450577834009 0.996817164005563 -87.8559513456105 0.996817164005564 -87.8559513456105 0.0341940017900714 -176.545839997552 
! Gamma         !               0.0191943718209263 38.2683212346059 0.0191943717748761 38.2683212178682 
! Port Impedance50               0                50               0                

1.28             0.0343792156381927 -177.839645552516 0.996745694734317 -89.2496556348133 0.996745694734318 -89.2496556348133 0.0343608949753191 -177.865668406814 
! Gamma         !               0.0194971090120261 38.8757549090714 0.0194971089671156 38.8757548926288 
! Port Impedance50               0                50               0                

1.3              0.0345269460895678 -179.229083311696 0.996673814790021 -90.6433484796718 0.996673814790021 -90.6433484796718 0.0345088615793035 -179.186479797663 
! Gamma         !               0.0197995336893788 39.4831885841018 0.0197995336458096 39.4831885680386 
! Port Impedance50               0                50               0                

1.32             0.0346554091272407 179.381416490137 0.996601539535212 -92.0370304080062 0.996601539535211 -92.0370304080062 0.0346377370003671 179.49209707507  
! Gamma         !               0.0201017020912859 40.0906222595868 0.0201017020492145 40.090622243971  
! Port Impedance50               0                50               0                

1.34             0.0347644613072963 177.992160163193 0.996528885037345 -93.4307019539733 0.996528885037345 -93.4307019539733 0.0347473777504656 178.170430384746 
! Gamma         !               0.0204036636652252 40.698055935432  0.0204036636247698 40.6980559203174 
! Port Impedance50               0                50               0                

1.36             0.0348539803627218 176.603452655857 0.99645586807509 -94.8243636647527 0.99645586807509 -94.8243636647527 0.0348376616328897 176.848885421287 
! Gamma         !               0.0207054617946619 41.3054896115532 0.0207054617559071 41.3054895969826 
! Port Impedance50               0                50               0                

1.38             0.0349238653067852 175.215597491419 0.996382506130554 -96.2180161072643 0.996382506130554 -96.2180161072644 0.0349084878411824 175.527824775616 
! Gamma         !               0.0210071344488056 41.9129232878796 0.0210071344118091 41.9129232738846 
! Port Impedance50               0                50               0                

1.4              0.0349740364558775 173.828896716812 0.996308817367474 -97.6116598748317 0.996308817367474 -97.6116598748317 0.0349597769794909 174.207608527065 
! Gamma         !               0.0213087147639861 42.5203569643489 0.0213087147287815 42.5203569509527 
! Port Impedance50               0                50               0                

1.42             0.0350044353725779 172.443650868255 0.996234820595598 -99.0052955936993 0.996234820595597 -99.0052955936994 0.0349914710050933 172.888594440555 
! Gamma         !               0.0216102315642311 43.127790640908  0.0216102315308324 43.1277906281258 
! Port Impedance50               0                50               0                

1.44             0.0350150247302527 171.060158958789 0.996160535221608 -100.398923929321 0.996160535221608 -100.398923929321 0.0350035330943912 171.571138180291 
! Gamma         !               0.0219117098277207 43.7352243175109 0.0219117097961252 43.7352243053517 
! Port Impedance50               0                50               0                

1.46             0.0350057881009816 169.67871849275  0.996085981187145 -101.792545592334 0.996085981187144 -101.792545592334 0.034995947434167 170.255593546758 
! Gamma         !               0.0222131711049808 44.3426579941194 0.0222131710751724 44.3426579825859 
! Port Impedance50               0                50               0                

1.48             0.0349767296691515 168.299625512409 0.996011178894597 -103.186161344141 0.996011178894597 -103.186161344141 0.0349687189404001 168.942312743961 
! Gamma         !               0.022514633893994 44.9500916707002 0.0225146338659447 44.9500916597907 
! Port Impedance50               0                50               0                

1.5              0.0349278738734967 166.923174682199 0.9959361491215  -104.579772002025 0.9959361491215  -104.579772002025 0.0349218729074442 167.631646683979 
! Gamma         !               0.0228161139767935 45.5575253472254 0.0228161139504663 45.557525336934  
! Port Impedance50               0                50               0                

1.52             0.0348592649808544 165.549659416222 0.995860912924498 -105.97337844373 0.995860912924498 -105.97337844373 0.0348554545908098 166.323945336268 
! Gamma         !               0.023117624721589 46.1649590236723 0.0231176246969393 46.1649590139893 
! Port Impedance50               0                50               0                

1.54             0.0347709665953304 164.179372055084 0.995785491533951 -107.366981611444 0.99578549153395 -107.366981611444 0.0347695287272437 165.019558129476 
! Gamma         !               0.0234191773540103 46.7723927000215 0.0234191773309876 46.7723926909348 
! Port Impedance50               0                50               0                

1.56             0.0346630611069657 162.812604098501 0.995709906240362 -108.760582515132 0.995709906240362 -108.760582515132 0.0346641789962238 163.718834414036 
! Gamma         !               0.0237207812006523 47.3798263762577 0.0237207811792014 47.3798263677521 
! Port Impedance50               0                50               0                

1.58             0.0345356490843822 161.449646500642 0.995634178273912 -110.154182235171 0.995634178273912 -110.154182235171 0.0345395074273473 162.422123994383 
! Gamma         !               0.0240224439077575 47.9872600523679 0.0240224438878196 47.987260044427  
! Port Impedance50               0                50               0                

1.6              0.0343888486162156 160.090790035767 0.995558328678424 -111.547781924246 0.995558328678423 -111.547781924246 0.0343956337584879 161.129777740388 
! Gamma         !               0.0243241716375575 48.5946937283429 0.0243241716190716 48.5946937209484 
! Port Impedance50               0                50               0                

1.62             0.034222794606448 158.736325742447 0.995482378181166 -112.941382808487 0.995482378181166 -112.941382808487 0.0342326947498706 159.842148288429 
! Gamma         !               0.0246259692445303 49.2021274041751 0.0246259692274334 49.2021273973074 
! Port Impedance50               0                50               0                

1.64             0.0340376380290358 157.386545455503 0.995406347059938 -114.334986187811 0.995406347059937 -114.334986187811 0.034050843459568 158.559590843593 
! Gamma         !               0.0249278404335817 49.8095610798589 0.02492784041781 49.8095610734974 
! Port Impedance50               0                50               0                

1.66             0.0338335451474479 156.041742435817 0.995330255008875 -115.728593435472 0.995330255008874 -115.728593435472 0.0338502484861331 157.282464095699 
! Gamma         !               0.0252297879019549 50.4169947553908 0.0252297878874441 50.4169947495148 
! Port Impedance50               0                50               0                

1.68             0.0336106967049319 154.702212109356 0.995254121004458 -117.122205996806 0.995254121004457 -117.122205996806 0.0336310931843546 156.011131263292 
! Gamma         !               0.0255318134664818 51.0244284307688 0.0255318134531679 51.0244284253568 
! Port Impedance50               0                50               0                

1.7              0.0333692870915065 153.368252928169 0.995177963173144 -118.515825387179 0.995177963173143 -118.515825387179 0.0333935748603208 154.745961281457 
! Gamma         !               0.0258339181776221 51.6318621059919 0.0258339181654415 51.6318621010222 
! Port Impedance50               0                50               0                

1.72             0.0331095234937873 152.040167367791 0.995101798662071 -119.909453189161 0.99510179866207 -119.909453189161 0.0331379039521567 153.487330151337 
! Gamma         !               0.0261361024215904 52.2392957810612 0.0261361024104807 52.2392957765119 
! Port Impedance50               0                50               0                

1.74             0.0328316250338819 150.718263077443 0.995025643514174 -121.303091048927 0.995025643514173 -121.303091048927 0.0328643032029578 152.23562247159  
! Gamma         !               0.0264383660117418 52.8467294559772 0.0264383660016415 52.846729451827  
! Port Impedance50               0                50               0                

1.76             0.0325358219036509 149.402854201781 0.994949512549053 -122.696740671949 0.994949512549051 -122.696740671949 0.0325730068326108 150.99123317484  
! Gamma         !               0.0267407082702641 53.4541631307427 0.0267407082611133 53.4541631269701 
! Port Impedance50               0                50               0                

1.78             0.0322223545007059 148.094262895671 0.994873419250815 -124.090403817979 0.994873419250813 -124.090403817979 0.0322642597152939 149.754569495496 
! Gamma         !               0.0270431281011273 54.0615968053605 0.0270431280928678 54.0615968019441 
! Port Impedance50               0                50               0                

1.8              0.0318914725725287 146.792821056828 0.994797375664059 -125.4840822954  0.994797375664058 -125.4840822954  0.0319383165696156 148.526053199206 
! Gamma         !               0.0273456240551425 54.6690304798338 0.0273456240477179 54.669030476753  
! Port Impedance50               0                50               0                

1.82             0.031543434375162 145.498872304985 0.994721392299058 -126.877777954973 0.994721392299056 -126.877777954973 0.0315954411684347 147.306123108882 
! Gamma         !               0.0276481943879011 55.2764641541664 0.0276481943812569 55.2764641514013 
! Port Impedance50               0                50               0                

1.84             0.0311785058528985 144.212774240991 0.994645478047087 -128.271492683055 0.994645478047085 -128.271492683055 0.0312359055756107 146.095237967754 
! Gamma         !               0.02795083711129 55.8838978283631 0.0279508371053739 55.8838978258937 
! Port Impedance50               0                50               0                

1.86             0.0307969598454882 142.934901024796 0.994569640106767 -129.665228394329 0.994569640106765 -129.665228394329 0.0308599894170409 144.89387968644  
! Gamma         !               0.0282535500392123 56.4913315024281 0.0282535500339738 56.4913315002355 
! Port Impedance50               0                50               0                

1.88             0.0303990753293447 141.665646317994 0.994493883922122 -131.058987024129 0.994493883922119 -131.058987024129 0.0304679791935904 143.702557028896 
! Gamma         !               0.0285563308280799 57.0987651763663 0.0285563308234708 57.0987651744322 
! Port Impedance50               0                50               0                

1.9              0.0299851366993947 140.405426644641 0.994418213132971 -132.452770520421 0.994418213132969 -132.452770520421 0.0300601676437743 142.521809801481 
! Gamma         !               0.0288591770125944 57.7061988501825 0.0288591770085685 57.706198848489  
! Port Impedance50               0                50               0                

1.92             0.0295554330982344 139.154685233815 0.994342629538134 -133.846580835506 0.994342629538132 -133.846580835506 0.0296368531643663 141.352213620614 
! Gamma         !               0.0291620860372796 58.313632523882  0.029162086033793 58.3136325224123 
! Port Impedance50               0                50               0                

1.94             0.0291102577995087 137.913896419175 0.99426713307179 -135.240419917524 0.994267133071789 -135.240419917524 0.0291983392975887 140.194385348067 
! Gamma         !               0.0294650552841887 58.9210661974703 0.0294650552811997 58.9210661962075 
! Port Impedance50               0                50               0                

1.96             0.0286499076526025 136.68357068512  0.994191721793228 -136.634289701837 0.994191721793226 -136.634289701837 0.028744934294062 139.048989299337 
! Gamma         !               0.0297680820971654 59.5284998709517 0.0297680820946343 59.5284998698807 
! Port Impedance50               0                50               0                

1.98             0.0281746825961463 135.464260466658 0.994116391890073 -138.028192102345 0.99411639189007 -138.028192102345 0.0282769507614654 137.916744350328 
! Gamma         !               0.0300711638030067 60.1359335443322 0.0300711638008959 60.1359335434378 
! Port Impedance50               0                50               0                

2                0.0276848852483029 134.25656683154  0.994041137694971 -139.422129002837 0.994041137694969 -139.422129002837 0.0277947054097906 136.798432091822 
! Gamma         !               0.0303742977298395 60.7433672176165 0.0303742977281134 60.7433672168847 
! Port Impedance50               0                50               0                

2.02             0.0271808205824631 133.061147199683 0.99396595171559 -140.816102248417 0.993965951715588 -140.816102248417 0.0272985189053192 135.694906210585 
! Gamma         !               0.0306774812229946 61.3508008908099 0.0306774812216195 61.3508008902269 
! Port Impedance50               0                50               0                

2.04             0.0266627956979243 131.878724287503 0.993890824677652 -142.210113637108 0.99389082467765 -142.210113637108 0.0267887158470184 134.60710331222  
! Gamma         !               0.0309807116586358 61.9582345639168 0.0309807116575802 61.9582345634699 
! Port Impedance50               0                50               0                

2.06             0.026131119696287 130.710096505472 0.993815745580648 -143.604164911669 0.993815745580646 -143.604164911669 0.0262656248810966 133.536055445254 
! Gamma         !               0.0312839864553772 62.5656682369429 0.0312839864546113 62.5656682366201 
! Port Impedance50               0                50               0                

2.08             0.0255861036759129 129.556150087818 0.993740701765753 -144.998257751713 0.993740701765751 -144.998257751713 0.0257295789720408 132.482904641023 
! Gamma         !               0.0315873030841001 63.1731019098926 0.0315873030835961 63.1731019096822 
! Port Impedance50               0                50               0                

2.1              0.0250280608589054 128.417873296946 0.993665678995355 -146.392393766184 0.993665678995353 -146.392393766184 0.0251809158518222 131.448919852078 
! Gamma         !               0.0318906590761602 63.7805355827704 0.0318906590758919 63.7805355826616 
! Port Impedance50               0                50               0                

2.12             0.0244573068677695 127.296373125498 0.993590661543551 -147.786574486231 0.993590661543549 -147.786574486231 0.0246199786731965 130.435516756918 
! Gamma         !               0.0321940520301595 64.3879692555807 0.0321940520301023 64.3879692555636 
! Port Impedance50               0                50               0                

2.14             0.0238741601725525 126.192895020721 0.99351563229686 -149.180801358563 0.993515632296857 -149.180801358563 0.0240471168985514 129.444281005411 
! Gamma         !               0.0324974796174389 64.9954029283282 0.0324974796175701 64.9954029283931 
! Port Impedance50               0                50               0                

2.16             0.02327894273394 125.108846286074 0.993440572864332 -150.5750757393  0.99344057286433 -150.5750757393  0.0234626874627843 128.476995613218 
! Gamma         !               0.0328009395864363 65.6028366010167 0.0328009395867345 65.6028366011547 
! Port Impedance50               0                50               0                

2.18             0.0226719808739907 124.045823981931 0.993365463696193 -151.969398888391 0.993365463696191 -151.969398888391 0.02286705625786 127.535673382963 
! Gamma         !               0.033104429766035 66.2102702736503 0.0331044297664804 66.210270273853  
! Port Impedance50               0                50               0                

2.2              0.0220536064143521 123.00564836335  0.99329028421007 -153.363771964622 0.993290284210068 -153.363771964622 0.0222605999984877 126.62259544502  
! Gamma         !               0.0334079480680225 66.817703946233  0.0334079480685966 66.8177039464928 
! Port Impedance50               0                50               0                

2.22             0.021424158132557 121.990403173993 0.993215012923832 -154.75819602124 0.99321501292383 -154.75819602124 0.021643708543762 125.740357285308 
! Gamma         !               0.0337114924887632 67.4251376187685 0.0337114924894491 67.4251376190779 
! Port Impedance50               0                50               0                

2.24             0.0207839836014012 121.002484483862 0.993139627594039 -156.152672002243 0.993139627594037 -156.152672002243 0.0210167877697583 124.891923979544 
! Gamma         !               0.0340150611101814 68.0325712912599 0.0340150611109633 68.0325712916124 
! Port Impedance50               0                50               0                

2.26             0.0201334414955545 120.044660245113 0.993064105358946 -157.547200739336 0.993064105358944 -157.547200739336 0.0203802631144959 124.080696806887 
! Gamma         !               0.0343186521001382 68.6400049637111 0.0343186521010017 68.6400049641001 
! Port Impedance50               0                50               0                

2.28             0.0194729044755693 119.120143387678 0.992988422885019 -158.941782949571 0.992988422885016 -158.941782949571 0.0197345839517784 123.310594002709 
! Gamma         !               0.0346222637122833 69.2474386361251 0.0346222637132149 69.247438636545  
! Port Impedance50               0                50               0                

2.3              0.0188027627945466 118.232682144749 0.99291255651589 -160.336419233697 0.992912556515888 -160.336419233697 0.0190802289969313 122.58614917279  
! Gamma         !               0.0349258942854489 69.8548723085045 0.0349258942864363 69.85487230895   
! Port Impedance50               0                50               0                

2.32             0.0181234288211448 117.386672472025 0.992836482422702 -161.731110075201 0.992836482422698 -161.731110075201 0.018417713009992 121.912631885454 
! Gamma         !               0.0352295422426493 70.4623059808528 0.0352295422436814 70.462305981319  
! Port Impedance50               0                50               0                

2.34             0.0174353427393254 116.587299025244 0.99276017675476 -163.125855840063 0.992760176754757 -163.125855840063 0.0177475951460779 121.296196258497 
! Gamma         !               0.0355332060897441 71.0697396531724 0.0355332060908105 71.0697396536547 
! Port Impedance50               0                50               0                

2.36             0.0167389797787737 115.840713361177 0.992683615789502 -164.520656777195 0.9926836157895  -164.520656777194 0.0170704894170847 120.744065060475 
! Gamma         !               0.0358368844138137 71.6771733254658 0.0358368844149052 71.6771733259602 
! Port Impedance50               0                50               0                

2.38             0.0160348594619047 115.154261079346 0.992606776080722 -165.915513019569 0.99260677608072 -165.915513019569 0.0163870778853258 120.264759075137 
! Gamma         !               0.0361405758812946 72.2846069977355 0.0361405758824028 72.2846069982382 
! Port Impedance50               0                50               0                

2.4              0.0153235575421362 114.536773890006 0.992529634604111 -167.310424586015 0.992529634604109 -167.310424586015 0.0156981274250115 119.868384386254 
! Gamma         !               0.0364442792359145 72.892040669984  0.0364442792370315 72.8920406704914 
! Port Impedance50               0                50               0                

2.42             0.0146057215811102 113.998948610864 0.992452168899149 -168.705391383662 0.992452168899147 -168.705391383662 0.0150045111857128 119.566994004854 
! Gamma         !               0.0367479932964633 73.4994743422129 0.0367479932975824 73.4994743427222 
! Port Impedance50               0                50               0                

2.44             0.0138820915123581 113.553843637663 0.992374357206471 -170.100413210995 0.992374357206469 -170.100413210995 0.0143072363068482 119.375045058419 
! Gamma         !               0.0370517169544344 74.1069080144249 0.0370517169555493 74.1069080149332 
! Port Impedance50               0                50               0                

2.46             0.0131535271319607 113.217535629614 0.992296178599862 -171.495489761511 0.992296178599861 -171.495489761511 0.0136074800114933 119.309978699894 
! Gamma         !               0.0373554491715627 74.7143416866212 0.0373554491726678 74.714341687126  
! Port Impedance50               0                50               0                

2.48             0.0124210453475766 113.009996609585 0.99221761311209 -172.890620627922 0.992217613112087 -172.890620627922 0.0129066370167752 119.392956847653 
! Gamma         !               0.0376591889772869 75.3217753588041 0.0376591889783775 75.321775359303  
! Port Impedance50               0                50               0                

2.5              0.0116858713722153 112.956276620696 0.992138641853862 -174.285805306889 0.99213864185386 -174.285805306889 0.0122063823230687 119.649797102878 
! Gamma         !               0.0379629354661593 75.9292090309747 0.0379629354672311 75.9292090314659 
! Port Impedance50               0                50               0                

2.52             0.0109495101329981 113.088112326403 0.992059247125251 -175.681043204222 0.992059247125248 -175.681043204222 0.0115087549894963 120.1121525605   
! Gamma         !               0.0382666877952214 76.5366427031349 0.0382666877962704 76.5366427036166 
! Port Impedance50               0                50               0                

2.54             0.0102138473989055 113.446130386533 0.991979412519006 -177.076333640526 0.991979412519005 -177.076333640526 0.0108162705713178 120.818981474725 
! Gamma         !               0.0385704451813638 77.144076375286  0.038570445182387 77.1440763757565 
! Port Impedance50               0                50               0                

2.56             0.00948129517026661 114.08287689827  0.991899123015237 -178.471675857231 0.991899123015237 -178.471675857231 0.0101320725173984 121.81833104617  
! Gamma         !               0.0388742068986881 77.7515100474292 0.0388742068996826 77.7515100478874 
! Port Impedance50               0                50               0                

2.58             0.00875500368643089 115.066972571754 0.991818365067031 -179.867069022969 0.991818365067024 -179.867069022969 0.00946013577951282 123.169394908181 
! Gamma         !               0.0391779722758804 78.3589437195661 0.0391779722768438 78.3589437200107 
! Port Impedance50               0                50               0                

2.6              0.00803917425592697 116.488731216353 0.991737126676631 178.737487759758 0.991737126676624 178.737487759758 0.00880553824095111 124.944644894348 
! Gamma         !               0.0394817406936113 78.9663773916972 0.0394817406945416 78.9663773921273 
! Port Impedance50               0                50               0                

2.62             0.00733952399846712 118.467469964064 0.991655397462118 177.341995447664 0.991655397462117 177.341995447664 0.00817481468439562 127.231490527451 
! Gamma         !               0.0397855115819717 79.573811063824  0.0397855115828673 79.5738110642389 
! Port Impedance50               0                50               0                

2.64             0.00666397389795456 121.160157232329 0.99157316871378 175.946455049574 0.991573168713778 175.946455049574 0.00757639751092135 130.132230685174 
! Gamma         !               0.0400892844179525 80.1812447359471 0.040089284418812 80.1812447363461 
! Port Impedance50               0                50               0                
