! Touchstone file exported from HFSS 2018.2.0
!        File:           C:/Users/10024/OneDrive - The University of Nottingham Ningbo China/Year 4/Final Year Project/HFSS project/Patch-1.aedt
!        Generated:      4:47:33 下午  3月 10, 2022
!        Design:         SMA_workbench
!        Project:        Patch-1
!        Setup:          Setup1
!        Solution:       Sweep
!
! Variables:
!        MW = 1.992mm
!        ThruL = 40mm
!        g = 0.2mm
!        subH = 0.8mm
!        subX = 20mm
!        subY = 50mm
!
# GHZ S MA R 50.000000
! Modal data exported
! Port[1] = SMA_CONNECTOR1_1:1
! Port[2] = SMA_CONNECTOR2_1:1
1                0.0220781262776073 154.239034315457 0.995574669602975 -116.838538790433 0.995574669602976 -116.838538790433 0.0221464998191475 157.653161366155 
! Gamma         !               0.0151858380091493 30.3716836111682 0.0151858380091086 30.371683611174  
! Port Impedance50               0                50               0                

1.02             0.0214535066320161 152.166618062694 0.995458564725379 -119.173566432964 0.995458564725387 -119.173566432973 0.0215348956860769 155.81485367618  
! Gamma         !               0.0154880498683656 30.9791179245729 0.0154880411763177 30.979116568124  
! Port Impedance50               0                50               0                

1.04             0.0208029762907044 150.122679023355 0.995342427936683 -121.508553993361 0.995342427936691 -121.508553993377 0.0208988232278443 154.022640355966 
! Gamma         !               0.0157905532518841 31.5865521133248 0.0157905363015015 31.586549664848  
! Port Impedance50               0                50               0                

1.06             0.0201272653532663 148.107767574407 0.995226254836117 -123.843509946984 0.995226254836115 -123.843509947008 0.0202391465735701 152.279305544796 
! Gamma         !               0.0160933087237664 32.1939861943388 0.0160932840464461 32.1939828822985 
! Port Impedance50               0                50               0                

1.08             0.0194270772590668 146.122817372606 0.995110026215027 -126.178442267588 0.995110026215009 -126.178442267619 0.0195567226908627 150.588403451425 
! Gamma         !               0.0163962812265941 32.8014201826429 0.0163962494265714 32.8014162035589 
! Port Impedance50               0                50               0                

1.1              0.0187030938383728 144.169235228008 0.994993709563577 -128.513358344085 0.994993709563534 -128.513358344123 0.0188524119489838 148.954434650539 
! Gamma         !               0.0166994396708074 33.4088540915602 0.0166994014033233 33.4088496136399 
! Port Impedance50               0                50               0                

1.12             0.017955981345256 142.249018641377 0.994877260696603 -130.848264909647 0.994877260696529 -130.848264909691 0.0181270912841112 147.383072924869 
! Gamma         !               0.0170027565550909 34.0162879328712 0.0170027125074255 34.0162830992934 
! Port Impedance50               0                50               0                

1.14             0.0171863975833587 140.364911418968 0.9947606254713  -133.183167983564 0.994760625471192 -133.183167983613 0.0173816706400258 145.881460047991 
! Gamma         !               0.0173062076163772 34.6237217169656 0.0173061584915528 34.6237166488402 
! Port Impedance50               0                50               0                

1.16             0.0163950003105566 138.520612598327 0.994643741569319 -135.518072826093 0.994643741569171 -135.518072826148 0.0166171136646315 144.458593002906 
! Gamma         !               0.0176097715079678 35.2311554529813 0.0176097180109147 35.2311502520149 
! Port Impedance50               0                50               0                

1.18             0.0155824572269982 136.721061374176 0.994526540316065 -137.852983906382 0.994526540315875 -137.85298390644 0.0158344641044208 143.12583854123  
! Gamma         !               0.0179134295042175 35.8385891489317 0.0179133723301933 35.8385838998209 
! Port Impedance50               0                50               0                

1.2              0.0147494580410755 134.972832501247 0.994408948510577 -140.187904883342 0.99440894851034 -140.187904883404 0.0150348800431308 141.897625430812 
! Gamma         !               0.018217165230214 36.4460228118219 0.0182171050552693 36.4460175843981 
! Port Impedance50               0                50               0                

1.22             0.0138967294193093 133.284695745985 0.994290890240111 -142.522838599219 0.994290890239827 -142.522838599284 0.0142196792220089 140.792387907524 
! Gamma         !               0.0185209644148834 37.0534564477538 0.0185209018881683 37.0534512989039 
! Port Impedance50               0                50               0                

1.24             0.0130250541490142 131.668424733144 0.994172288654719 -144.857787085418 0.994172288654385 -144.857787085486 0.0133904003985112 139.8338689422   
! Gamma         !               0.0188248146659762 37.6608900620255 0.0188247504036929 37.6608850374037 
! Port Impedance50               0                50               0                

1.26             0.0121352967464176 130.139995009953 0.994053067678444 -147.192751580005 0.99405306767806 -147.192751580075 0.0125488884570838 139.052945452784 
! Gamma         !               0.0191287052654228 38.2683236592153 0.0191286398462356 38.2683187947718 
! Port Impedance50               0                50               0                

1.28             0.0112284393584421 128.721407728913 0.993933153635449 -149.52773255617 0.993933153635016 -149.527732556241 0.0116974154832387 138.490219270761 
! Gamma         !               0.019432626983594 38.875757243265  0.0194325609453209 38.8757525666003 
! Port Impedance50               0                50               0                

1.3              0.0103056348087276 127.443553129595 0.993812476771288 -151.862729760779 0.993812476770805 -151.862729760852 0.0108388574685778 138.199740983512 
! Gamma         !               0.0197365719110602 39.4831908175488 0.0197365057484797 39.4831863491184 
! Port Impedance50               0                50               0                

1.32             0.0093682894730573 126.35086944672  0.993690972651645 -154.19774226208 0.993690972651116 -154.197742262153 0.00997695883401817 138.254413439352 
! Gamma         !               0.020040533306501 40.0906243849426 0.0200404674701214 40.090620139119  
! Port Impedance50               0                50               0                

1.34             0.00841820060974808 125.509240945358 0.993568583423284 -156.532768505458 0.993568583422709 -156.532768505531 0.00911673808244578 138.753859298001 
! Gamma         !               0.0203445054594887 40.698057947879  0.0203444403551381 40.6980539338906 
! Port Impedance50               0                50               0                

1.36             0.00745779871639445 125.020042764392 0.993445258924424 -158.867806376123 0.993445258923806 -158.867806376195 0.00826512310409653 139.835765538261 
! Gamma         !               0.0206484835669314 41.3054915084022 0.0206484195560397 41.305487731159  
! Port Impedance50               0                50               0                

1.38             0.00649060594452168 125.046550049212 0.993320957634495 -161.20285326748 0.993320957633837 -161.202853267552 0.0074319603773884 141.691615256119 
! Gamma         !               0.0209524636220372 41.9129250682161 0.0209524010224945 41.9129215290323 
! Port Impedance50               0                50               0                

1.4              0.00552217442512828 125.866916727163 0.993195647456023 -163.537906153952 0.993195647455328 -163.537906154022 0.00663161692915718 144.586135878955 
! Gamma         !               0.0212564423147295 42.520358628725  0.0212563814022133 42.5203553259542 
! Port Impedance50               0                50               0                

1.42             0.00456219221189837 127.98842718244  0.993069306324242 -165.872961666939 0.993069306323514 -165.872961667008 0.00588543737389582 148.873253346531 
! Gamma         !               0.0215604169425105 43.1277921910749 0.0215603579521904 43.1277891206584 
! Port Impedance50               0                50               0                

1.44             0.00362974029294917 132.411491929018 0.992941922642979 -168.208016172639 0.992941922642222 -168.208016172706 0.00522509325484024 154.981421680928 
! Gamma         !               0.0218643853308432 43.7352257561847 0.0218643284593782 43.7352229121329 
! Port Impedance50               0                50               0                

1.46             0.00276789820203972 141.245805306567 0.992813495548187 -170.543065850455 0.992813495547404 -170.54306585052 0.00469562833231815 163.297892935392 
! Gamma         !               0.0221683457621841 44.3426593247785 0.0221682911699396 44.3426566995838 
! Port Impedance50               0                50               0                

1.48             0.00208497774233984 158.656468896016 0.992684035003317 -172.878106770747 0.992684035002515 -172.878106770809 0.00435359370653163 173.850655776986 
! Gamma         !               0.0224722969128638 44.9500928974122 0.022472244726284 44.9500904824046 
! Port Impedance50               0                50               0                

1.5              0.00181622626241514 -172.526187481312 0.992553561733421 -175.213134970755 0.992553561732602 -175.213134970816 0.00425219594698564 -174.132334212051 
! Gamma         !               0.0227762377970754 45.5575264744964 0.0227761881111552 45.5575242601508 
! Port Impedance50               0                50               0                

1.52             0.00213827837314689 -144.32182526602 0.992422107007299 -177.548146527616 0.992422107006468 -177.548146527674 0.00441437881177692 -162.213029350623 
! Gamma         !               0.0230801677172843 46.1649600563212 0.0230801205980951 46.1649580325141 
! Port Impedance50               0                50               0                

1.54             0.00286591425866814 -127.684996566388 0.992289712279326 -179.883137627451 0.992289712278472 -179.883137627505 0.00481827630250504 -151.897900337845 
! Gamma         !               0.0233840862204363 46.7723936430697 0.0233840417076603 46.772391799302  
! Port Impedance50               0                50               0                

1.56             0.0037757659772729 -119.288689119374 0.99215642870455 177.781895370335 0.99215642870371 177.781895370284 0.00541316117759287 -143.859612765373 
! Gamma         !               0.0236879930593791 47.3798272348397 0.0236879511688241 47.37982556042   
! Port Impedance50               0                50               0                

1.58             0.00476681968779974 -115.114086576328 0.992022316542315 175.446955874287 0.992022316541479 175.446955874239 0.00614557629042295 -138.009977946357 
! Gamma         !               0.023991888158978 47.9872608316549 0.0239918488850395 47.9872593158541 
! Port Impedance50               0                50               0                

1.6              0.00579827980042706 -113.157962894431 0.991887444464983 173.112047008304 0.991887444464154 173.112047008259 0.00697293733596433 -133.946028736219 
! Gamma         !               0.0242957715864369 48.5946944334778 0.0242957349044867 48.5946930656562 
! Port Impedance50               0                50               0                

1.62             0.00685147761523339 -112.467321160324 0.991751888789219 170.777171565637 0.9917518887884  170.777171565596 0.00786500653997335 -131.243864837775 
! Gamma         !               0.0245996435253863 49.2021280402239 0.0245996093940689 49.2021268099343 
! Port Impedance50               0                50               0                

1.64             0.0079164164605824 -112.555935147622 0.991615732647908 168.442331969808 0.991615732647104 168.442331969769 0.00880100287897219 -129.558671850431 
! Gamma         !               0.0249035042533397 49.8095616517669 0.0249034726167624 49.8095605488377 
! Port Impedance50               0                50               0                

1.66             0.00898689204209188 -113.155485845371 0.991479065120794 166.107530242585 0.991479065120009 166.10753024255  0.0097665076231526 -128.633743267994 
! Gamma         !               0.0252073541221518 50.4169952679507 0.0252073249119563 50.4169942825508 
! Port Impedance50               0                50               0                

1.68             0.010058525606077 -114.107429360305 0.991341980341721 163.772767979023 0.991341980340958 163.772767978991 0.01075120609122 -128.283387963413 
! Gamma         !               0.025511193541149 51.0244288885946 0.0255111666784587 51.0244280112837 
! Port Impedance50               0                50               0                

1.7              0.0111278865482184 -115.312602313301 0.991204576599594 161.438046329393 0.991204576598858 161.438046329363 0.011747416573197 -128.373723395899 
! Gamma         !               0.0258150229626338 51.6318625135007 0.0258149983598713 51.6318617352662 
! Port Impedance50               0                50               0                

1.72             0.0121920667468038 -116.705983960441 0.99106695544919 159.103365987731 0.991066955448482 159.103365987705 0.0127491644883631 -128.807432965304 
! Gamma         !               0.0261188428694939 52.2392961424572 0.026118820432065 52.2392954547403 
! Port Impedance50               0                50               0                

1.74             0.0132484599550699 -118.243220929287 0.99092922084647 156.768727186581 0.990929220845794 156.768727186558 0.0137516016516237 -129.512846476319 
! Gamma         !               0.0264226537646685 52.8467297752457 0.0264226333925137 52.846729169957  
! Port Impedance50               0                50               0                

1.76             0.0142946416909344 -119.893024657056 0.990791478321406 154.434129697397 0.990791478320763 154.434129697376 0.0147506385612077 -130.436384058717 
! Gamma         !               0.0267264561622566 53.4541634116429 0.0267264377512713 53.4541628811702 
! Port Impedance50               0                50               0                

1.78             0.0153283016623165 -121.632675071286 0.990653834199336 152.099572836003 0.990653834198729 152.099572835985 0.0157427082998269 -131.537368628659 
! Gamma         !               0.0270302505800676 54.0615970514246 0.0270302340233908 54.0615965886356 
! Port Impedance50               0                50               0                

1.8              0.0163472051936551 -123.445251625412 0.990516394879748 149.765055472417 0.990516394879179 149.765055472401 0.016724612756783 -132.784449583776 
! Gamma         !               0.0273340375334371 54.6690306943676 0.0273340227226149 54.6690302926058 
! Port Impedance50               0                50               0                

1.82             0.0173491714151763 -125.317867529041 0.990379266179125 147.430576044295 0.990379266178595 147.430576044281 0.0176934212241778 -134.153112995387 
! Gamma         !               0.0276378175301488 55.2764643402534 0.0276378043561768 55.2764639933284 
! Port Impedance50               0                50               0                

1.84             0.0183320615191931 -127.240509044605 0.990242552742134 145.096132573249 0.990242552741644 145.096132573237 0.0186464029371661 -135.623926686845 
! Gamma         !               0.0279415910663218 55.883897988868  0.0279415794205703 55.883897691045  
! Port Impedance50               0                50               0                

1.86             0.0192937732511602 -129.205251997513 0.990106357523151 142.761722683262 0.990106357522701 142.761722683252 0.0195809820182752 -137.1812867354  
! Gamma         !               0.0282453586231358 56.4913316400043 0.0282453483981641 56.4913313859882 
! Port Impedance50               0                50               0                

1.88             0.0202322393504925 -131.205720399352 0.989970781337827 140.427343620456 0.989970781337417 140.427343620448 0.0204947074605379 -138.812510036614 
! Gamma         !               0.0285491206642802 57.0987652934636 0.0285491117545466 57.0987650783824 
! Port Impedance50               0                50               0                

1.9              0.0211454285263423 -133.236704527957 0.989835922482327 138.092992273518 0.989835922481958 138.092992273511 0.0213852333551292 -140.507168727356 
! Gamma         !               0.0288528776340289 57.7061989490552 0.0288528699365019 57.7061987684414 
! Port Impedance50               0                50               0                

1.92             0.0220313480609561 -135.293886461659 0.989701876415908 135.758665194115 0.989701876415579 135.75866519411  0.022250306181099 -142.256595825866 
! Gamma         !               0.029156629955849 58.3136326065977 0.0291566233705276 58.3136324563677 
! Port Impedance50               0                50               0                

1.94             0.0228880474392039 -137.373639521445 0.989568735500854 133.424358616757 0.989568735500565 133.424358616753 0.0230877570040923 -144.053513623166 
! Gamma         !               0.0294603780314673 58.9210662659201 0.0294603724618149 58.9210661423538 
! Port Impedance50               0                50               0                

1.96             0.0237136225933443 -139.472879487255 0.989436588792374 131.090068477592 0.989436588792123 131.090068477589 0.0238954971004925 -145.891751158255 
! Gamma         !               0.0297641222403231 59.5284999268595 0.0297641175936233 59.5284998265798 
! Port Impedance50               0                50               0                

1.98             0.0245062204744507 -141.588952683362 0.989305521869992 128.75579043179  0.989305521869777 128.755790431788 0.0246715159670938 -147.766027096192 
! Gamma         !               0.0300678629393452 60.1359335892646 0.0300678591269853 60.1359335092151 
! Port Impedance50               0                50               0                

2                0.0252640437431529 -143.71955070706 0.989175616701215 126.421519869204 0.989175616701036 126.421519869202 0.0254138809757872 -149.67178114806 
! Gamma         !               0.0303716004630024 60.7433672529926 0.0303715974006899 60.7433671904181 
! Port Impedance50               0                50               0                

2.02             0.0259853554279695 -145.862644664638 0.989046951527899 124.087251928176 0.989046951527755 124.087251928175 0.026120738138538 -151.605041884536 
! Gamma         !               0.0306753351235755 61.3508009179113 0.0306753327314963 61.3508008703357 
! Port Impedance50               0                50               0                

2.04             0.0266684834390737 -148.016433855708 0.988919600765622 121.75298150742  0.988919600765511 121.75298150742  0.0267903135920646 -153.562322089882 
! Gamma         !               0.0309790672116145 61.9582345838972 0.0309790654145355 61.9582345491041 
! Port Impedance50               0                50               0                

2.06             0.0273118248543444 -150.179305266638 0.988793634906751 119.418703276047 0.98879363490667 119.418703276047 0.0274209155144345 -155.540535132944 
! Gamma         !               0.0312827969965406 62.5656682508366 0.0312827957238642 62.5656682268493 
! Port Impedance50               0                50               0                

2.08             0.027913849916692 -152.349801218639 0.98866912041842 117.084411681879 0.988669120418367 117.084411681879 0.028010936260584 -157.536927496995 
! Gamma         !               0.0315865247273643 63.1731019186239 0.0315865239131406 63.1731019036872 
! Port Impedance50               0                50               0                

2.1              0.0284731056990449 -154.526593208702 0.988546119627568 114.750100958318 0.98854611962754 114.750100958318 0.028558854559199 -159.549023812448 
! Gamma         !               0.0318902506334927 63.7805355871628 0.0318902502163921 63.7805355797238 
! Port Impedance50               0                50               0                

2.12             0.0289882194074258 -156.708460474546 0.988424690586318 112.415765130085 0.988424690586315 112.415765130085 0.02906323765525 -161.574581612551 
! Gamma         !               0.0321939749256008 64.3879692563644 0.0321939748488543 64.3879692550569 
! Port Impedance50               0                50               0                

2.14             0.0294579013042723 -158.894272169407 0.988304886912299 110.081398018235 0.988304886912315 110.081398018235 0.0295227433146978 -163.611553676086 
! Gamma         !               0.0324976977965492 64.9954029261478 0.0324976980078592 64.9954029297744 
! Port Impedance50               0                50               0                

2.16             0.02988094724394 -161.082972289779 0.988186757600015 107.746993244888 0.988186757600051 107.746993244887 0.029936121633065 -165.658056297629 
! Gamma         !               0.0328014194223301 65.6028365964392 0.0328014198737565 65.6028366039571 
! Port Impedance50               0                50               0                

2.18             0.0302562408207999 -163.273566687138 0.988070346800983 105.412544238152 0.988070346801035 105.412544238151 0.0303022166096466 -167.712342180677 
! Gamma         !               0.0331051399630265 66.2102702671718 0.0331051406108521 66.2102702776775 
! Port Impedance50               0                50               0                

2.2              0.0305827551375174 -165.465111632128 0.987955693571972 103.078044237748 0.987955693572039 103.078044237747 0.0306199674652101 -169.772776913778 
! Gamma         !               0.0334088595637755 66.8177039382849 0.0334088603683532 66.8177039510013 
! Port Impedance50               0                50               0                

2.22             0.0308595542073513 -167.656703500044 0.987842831592365 100.74348630182  0.987842831592442 100.743486301819 0.030888409694253 -171.837818187546 
! Gamma         !               0.0337125783557223 67.4251376097239 0.0337125792813085 67.425137623987  
! Port Impedance50               0                50               0                

2.24             0.0310857940096633 -169.847469218718 0.987731788853222 98.4088633154134 0.98773178885331 98.4088633154123 0.0311066758536974 -173.905997056977 
! Gamma         !               0.0340162964569578 68.0325712814402 0.0340162974715348 68.0325712966879 
! Port Impedance50               0                50               0                

2.26             0.0312607232223524 -172.036557170519 0.987622587322205 96.074168001069  0.987622587322301 96.0741680010676 0.0312739960988872 -175.975900660515 
! Gamma         !               0.0343200139734354 68.6400049533899 0.0343200150485246 68.6400049691505 
! Port Impedance50               0                50               0                

2.28             0.0313836836588467 -174.223128273311 0.987515242589809 93.7393929319392 0.98751524258991 93.7393929319376 0.0313896984853221 -178.046155882626 
! Gamma         !               0.0346237309998583 69.2474386255339 0.0346237321103275 69.2474386414166 
! Port Impedance50               0                50               0                

2.3              0.0314541104404678 -176.406346983628 0.987409763503646 91.4045305477616 0.987409763503752 91.4045305477597 0.0314532090609567 179.884586504198 
! Gamma         !               0.0349274476205351 69.8548722978374 0.0349274487444019 69.8548723135231 
! Port Impedance50               0                50               0                

2.32             0.0314715319377655 -178.585371970677 0.98730615179849 89.0695731739679 0.987306151798596 89.0695731739658 0.0314640517793974 177.817667655678 
! Gamma         !               0.0352311639101998 70.46230597027   0.0352311650284334 70.4623059855017 
! Port Impedance50               0                50               0                

2.34             0.0314355695166329 179.240653797549 0.987204401730588 86.7345130441288 0.987204401730694 86.7345130441264 0.0314218482692471 175.754436862453 
! Gamma         !               0.0355348799347951 71.069739642805  0.0355348810311167 71.0697396573814 
! Port Impedance50               0                50               0                

2.36             0.0313459371269963 177.072613835012 0.987104499725374 84.3993423258453 0.987104499725478 84.3993423258428 0.0313263174993577 173.696268594756 
! Gamma         !               0.0358385957522159 71.6771733154186 0.0358385968129017 71.6771733291861 
! Port Impedance50               0                50               0                

2.38             0.0312024407736157 174.911430098829 0.987006424047953 82.0640531501186 0.987006424048054 82.064053150116  0.0311772753841978 171.644580869715 
! Gamma         !               0.0361423114130131 72.2846069880906 0.0361423124266989 72.2846070009373 
! Port Impedance50               0                50               0                

2.4              0.0310049779102441 172.758076495931 0.98691014450591 79.72863764414   0.986910144506009 79.7286376441372 0.030974634378179 169.600855487758 
! Gamma         !               0.0364460269610569 72.8920406608037 0.036446027918547 72.8920406726528 
! Port Impedance50               0                50               0                

2.42             0.0307535368003197 170.613594372271 0.986815622193783 77.393087967354  0.986815622193876 77.3930879673512 0.0307184031131029 167.566660775846 
! Gamma         !               0.0367497424341603 73.4994743335423 0.0367497433282414 73.4994743443481 
! Port Impedance50               0                50               0                

2.44             0.0304481958896915 168.479110519859 0.986722809288201 75.0573963505697 0.986722809288287 75.0573963505668 0.030408686139238 165.54367760296  
! Gamma         !               0.0370534578646626 74.1069080062939 0.0370534586899222 74.106908016036  
! Port Impedance50               0                50               0                

2.46             0.0300891232400531 166.355858369361 0.986631648902098 72.7215551378099 0.986631648902177 72.7215551378071 0.0300456838387107 163.533729607675 
! Gamma         !               0.0373571732799732 74.7143416790478 0.0373571740326262 74.7143416877272 
! Port Impedance50               0                50               0                

2.48             0.0296765760761697 164.24520321374  0.986542075005654 70.3855568305219 0.986542075005726 70.3855568305191 0.0296296925906309 161.538818813487 
! Gamma         !               0.0376608887030792 75.3217753517951 0.0376608893807994 75.3217753594306 
! Port Impedance50               0                50               0                

2.5              0.0292109005063019 162.148672547756 0.986454012420651 68.0493941337057 0.986454012420717 68.0493941337031 0.0291611052818866 159.561168125379 
! Gamma         !               0.0379646041530143 75.9292090245284 0.0379646047547748 75.9292090311528 
! Port Impedance50               0                50               0                

2.52             0.0286925314843571 160.067992931518 0.986367376893873 65.7130600034619 0.986367376893932 65.7130600034593 0.0286404122774655 157.603272630474 
! Gamma         !               0.0382683196452933 76.5366426972417 0.0382683201712136 76.5366427028995 
! Port Impedance50               0                50               0                

2.54             0.0281219930954097 158.005135226846 0.986282075253987 63.3765476954175 0.986282075254036 63.3765476954152 0.0280682029917294 155.66796220839  
! Gamma         !               0.0385720351923124 77.1440763699308 0.0385720356435144 77.1440763746749 
! Port Impedance50               0                50               0                

2.56             0.0274998992652224 155.962370660259 0.986198005655031 61.0398508134537 0.986198005655074 61.0398508134516 0.0274451682405949 153.758478753682 
! Gamma         !               0.0388757508037175 77.751510042592  0.0388757511821888 77.7515100464821 
! Port Impedance50               0                50               0                

2.58             0.0268269550217265 153.942341006199 0.986115057908366 58.7029633581346 0.986115057908401 58.7029633581328 0.0267721036087982 151.878572411375 
! Gamma         !               0.0391794664867411 78.3589437152232 0.0391794667952071 78.3589437183226 
! Port Impedance50               0                50               0                

2.6              0.0261039584761242 151.948147362615 0.986033113903487 56.3658797742294 0.986033113903515 56.3658797742279 0.0260499141433911 150.032622756408 
! Gamma         !               0.0394831822465105 78.966377387822  0.0394831824883143 78.9663773901977 
! Port Impedance50               0                50               0                

2.62             0.0253318037490269 149.983463665761 0.985952048116821 54.0285949967142 0.98595204811684 54.028594996713  0.0252796207948664 148.225793001033 
! Gamma         !               0.0397868980863283 79.573811060388  0.0397868982653196 79.573811062108  
! Port Impedance50               0                50               0                

2.64             0.024511485151969 148.052683502944 0.98587172820625 51.6911044946552 0.985871728206263 51.6911044946543 0.0244623691869396 146.464228380692 
! Gamma         !               0.0400906140079273 80.1812447329208 0.0400906141283585 80.1812447340529 
! Port Impedance50               0                50               0                
