! Touchstone file exported from HFSS 2018.2.0
!        File:           C:/Users/10024/OneDrive - The University of Nottingham Ningbo China/Year 4/Final Year Project/HFSS project/Passive_Resonator_Antenna.aedt
!        Generated:      5:09:39 下午  3月 11, 2022
!        Design:         SMA_Thru
!        Project:        Passive_Resonator_Antenna
!        Setup:          Setup1
!        Solution:       Sweep
!
! Variables:
!        MW = 1.992mm
!        ThruL = 0.001mm
!        g = 0.2mm
!        subH = 0.8mm
!        subX = 20mm
!        subY = 10.001mm
!        tapW = 1.992mm
!
# GHZ S MA R 50.000000
! Modal data exported
! Port[1] = SMA_CONNECTOR1_1:1
! Port[2] = SMA_CONNECTOR2_1:1
1                0.0300626132096503 -130.965993051302 0.998941737612161 -41.95770765046  0.99894173761216 -41.9577076504599 0.0300652867620226 -133.274882904188 
! Gamma         !               0.0151858380091119 30.3716836111765 0.0151858380091291 30.3716836111941 
! Port Impedance50               0                50               0                

1.02             0.0305664098299965 -131.802649443301 0.998910167930362 -42.7968493192974 0.998910167930362 -42.7968493192974 0.0305688635157668 -134.090647201911 
! Gamma         !               0.0155579197772838 30.9791171468062 0.0155579197746602 30.9791171458787 
! Port Impedance50               0                50               0                

1.04             0.0310645011998969 -132.638629305374 0.998878231649026 -43.6359785770366 0.998878231649025 -43.6359785770366 0.0310667324245085 -134.907084988807 
! Gamma         !               0.0159220250642337 31.5865507009459 0.0159220250594061 31.5865506991943 
! Port Impedance50               0                50               0                

1.06             0.0315567821816433 -133.473953034626 0.998845940182592 -44.4750958779502 0.998845940182592 -44.4750958779501 0.0315587878159473 -135.724145064158 
! Gamma         !               0.0162789101539047 32.1939842714394 0.0162789101472482 32.1939842689725 
! Port Impedance50               0                50               0                

1.08             0.0320431480746126 -134.308639212009 0.998813305069066 -45.3142016808996 0.998813305069066 -45.3142016808995 0.0320449244629099 -136.541779856294 
! Gamma         !               0.0166292578955181 32.8014178563978 0.0166292578873546 32.8014178533117 
! Port Impedance50               0                50               0                

1.1              0.032523494623395 -135.142704752677 0.998780337953294 -46.1532964508924 0.998780337953293 -46.1532964508924 0.032525037590041 -137.359945082719 
! Gamma         !               0.0169736856687885 33.40885145416   0.0169736856593948 33.4088514505408 
! Port Impedance50               0                50               0                

1.12             0.0329977180260764 -135.976165039316 0.998747050571141 -46.9923806604803 0.99874705057114 -46.9923806604802 0.0329990228808263 -138.178599445867 
! Gamma         !               0.0173127523654624 34.0162850632631 0.0173127523550767 34.016285059187  
! Port Impedance50               0                50               0                

1.14             0.0334657149427002 -136.809034040528 0.99871345473448 -47.8314547910154 0.998713454734479 -47.8314547910153 0.0334667764849213 -138.997704360145 
! Gamma         !               0.0176469645238803 34.6237186824163 0.0176469645127073 34.6237186779516 
! Port Impedance50               0                50               0                

1.16             0.0339273825038707 -137.641324416079 0.998679562316845 -48.6705193337815 0.998679562316843 -48.6705193337814 0.0339281950257542 -139.817223706487 
! Gamma         !               0.0179767817322358 35.2311523104784 0.0179767817204512 35.2311523056864 
! Port Impedance50               0                50               0                

1.18             0.0343826183194752 -138.473047610529 0.998645385239673 -49.5095747910128 0.998645385239672 -49.5095747910127 0.0343831756083584 -140.63712361115 
! Gamma         !               0.0183026213987108 35.8385859464375 0.0183026213864657 35.8385859413723 
! Port Impedance50               0                50               0                

1.2              0.0348313204875448 -139.304213936606 0.998610935459046 -50.3486216768123 0.998610935459045 -50.3486216768122 0.0348316158274281 -141.457372245933 
! Gamma         !               0.0186248629720638 36.4460195893982 0.0186248629594879 36.4460195841082 
! Port Impedance50               0                50               0                

1.22             0.0352733876032139 -140.134832649479 0.998576224952868 -51.1876605179796 0.998576224952867 -51.1876605179795 0.035273413775571 -142.277939647362 
! Gamma         !               0.0189438516840254 37.0534532385631 0.0189438516712298 37.0534532330919 
! Port Impedance50               0                50               0                

1.24             0.0357087187677807 -140.964912012941 0.998541265708416 -52.0266918547573 0.998541265708415 -52.0266918547572 0.0357084680517183 -143.098797552682 
! Gamma         !               0.0192599018745724 37.6608868932234 0.0192599018616521 37.6608868876094 
! Port Impedance50               0                50               0                

1.26             0.0361372135978684 -141.794459358369 0.99850606971022 -52.8657162415036 0.998506069710218 -52.8657162415035 0.0361366777697147 -143.919919250799 
! Gamma         !               0.0195732999525085 38.2683205527473 0.0195732999395445 38.2683205470251 
! Port Impedance50               0                50               0                

1.28             0.0365587722346661 -142.623481137243 0.998470648928218 -53.7047342472979 0.998470648928217 -53.7047342472978 0.0365579425670321 -144.741279446524 
! Gamma         !               0.0198843070364612 38.8757542165719 0.0198843070235227 38.8757542107717 
! Port Impedance50               0                50               0                

1.3              0.0369732953532499 -143.451982967887 0.998435015306173 -54.5437464564855 0.998435015306173 -54.5437464564854 0.0369721626136201 -145.562854136664 
! Gamma         !               0.0201931613152083 39.4831878841942 0.0201931613023538 39.4831878783436 
! Port Impedance50               0                50               0                

1.32             0.0373806841719804 -144.279969677004 0.998399180750285 -55.3827534691661 0.998399180750284 -55.382753469166 0.0373792386208667 -146.384620496706 
! Gamma         !               0.0205000801609866 40.0906215551641 0.0205000801482654 40.0906215492874 
! Port Impedance50               0                50               0                

1.34             0.0377808404619729 -145.107445336536 0.998363157118003 -56.221755901632 0.998363157118003 -56.2217559016318 0.0377790718506762 -147.206556776965 
! Gamma         !               0.0208052620249439 40.6980552290801 0.0208052620123977 40.6980552231986 
! Port Impedance50               0                50               0                

1.36             0.0381736665566228 -145.934413296284 0.998326956207006 -57.0607543867581 0.998326956207004 -57.060754386758 0.0381715641246249 -148.028642207196 
! Gamma         !               0.0211088881400759 41.3054889055816 0.0211088881277392 41.3054888997145 
! Port Impedance50               0                50               0                

1.38             0.0385590653612048 -146.760876212674 0.998290589744317 -57.8997495743495 0.998290589744316 -57.8997495743494 0.0385566178332211 -148.8508569088  
! Gamma         !               0.0214111240536997 41.912922584346  0.021411124041601 41.9129225785099 
! Port Impedance50               0                50               0                

1.4              0.038936940362522 -147.586836074027 0.998254069375558 -58.7387421314483 0.998254069375557 -58.7387421314481 0.0389341359452341 -149.673181813835 
! Gamma         !               0.0217121210087107 42.5203562650846 0.0217121209968736 42.5203562592942 
! Port Impedance50               0                50               0                

1.42             0.0393071956386139 -148.412294222627 0.998217406654314 -59.5777327426026 0.998217406654313 -59.5777327426025 0.0393040220170979 -150.49559859013 
! Gamma         !               0.0220120171904461 43.1277899475368 0.0220120171788892 43.1277899418053 
! Port Impedance50               0                50               0                

1.44             0.0396697358685199 -149.237251373834 0.998180613031595 -60.4167221101013 0.998180613031595 -60.4167221101012 0.0396661802023849 -151.318089571883 
! Gamma         !               0.0223109388538902 43.7352236314702 0.0223109388426285 43.7352236258088 
! Port Impedance50               0                50               0                

1.46             0.0400244663420868 -150.061707632505 0.998143699845401 -61.2557109541759 0.998143699845401 -61.2557109541758 0.0400205152613323 -152.140637695184 
! Gamma         !               0.0226090013441609 44.3426573166761 0.0226090013332058 44.3426573110951 
! Port Impedance50               0                50               0                

1.48             0.0403712929698369 -150.885662506879 0.998106678310358 -62.0947000131713 0.998106678310357 -62.0947000131712 0.0403669325704378 -152.963226437954 
! Gamma         !               0.0229063100216485 44.9500910029672 0.0229063100110087 44.9500909974747 
! Port Impedance50               0                50               0                

1.5              0.0407101222928755 -151.709114920143 0.998069559507438 -62.9336900436881 0.998069559507437 -62.933690043688 0.040705338132088 -153.785839763854 
! Gamma         !               0.0232029611018318 45.5575246901744 0.0232029610915132 45.5575246847778 
! Port Impedance50               0                50               0                

1.52             0.0410408614928487 -152.532063219792 0.998032354373745 -63.772681820697 0.998032354373744 -63.7726818206969 0.0410356385842526 -154.608462069748 
! Gamma         !               0.0234990424186133 46.1649583781471 0.0234990424086195 46.1649583728529 
! Port Impedance50               0                50               0                

1.54             0.0413634184019518 -153.354505184938 0.997995073692367 -64.6116761376281 0.997995073692366 -64.611676137628 0.041357741210211 -155.43107813636 
! Gamma         !               0.0237946341189967 46.7723920667494 0.0237946341093295 46.772392061563  
! Port Impedance50               0                50               0                

1.56             0.0416777015129855 -154.176438031666 0.997957728082285 -65.4506738064345 0.997957728082284 -65.4506738064343 0.0416715539483254 -156.253673081775 
! Gamma         !               0.0240898092960322 47.3798257558603 0.0240898092866919 47.3798257507856 
! Port Impedance50               0                50               0                

1.58             0.0419836199894521 -154.99785841653 0.997920327988344 -66.2896756576331 0.997920327988343 -66.289675657633 0.0419769854018543 -157.076232317487 
! Gamma         !               0.0243846345661737 47.9872594453699 0.0243846345571587 47.9872594404112 
! Port Impedance50               0                50               0                

1.6              0.0422810836757075 -155.81876243827 0.997882883671275 -67.1286825403228 0.997882883671275 -67.1286825403227 0.0422739448487951 -157.898741506708 
! Gamma         !               0.0246791705965079 48.5946931351814 0.0246791705878159 48.5946931303411 
! Port Impedance50               0                50               0                

1.62             0.0425700031071602 -156.639145637817 0.997845405197771 -67.9676953221805 0.997845405197771 -67.9676953221804 0.0425623422517714 -158.721186524685 
! Gamma         !               0.0249734725867183 49.202126825207  0.0249734725783456 49.2021268204877 
! Port Impedance50               0                50               0                

1.64             0.0428502895205225 -157.459002996623 0.997807902430611 -68.8067148894372 0.997807902430611 -68.8067148894371 0.0428420882679496 -159.543553420777 
! Gamma         !               0.025267590710111 49.8095605153687 0.0252675907020534 49.8095605107721 
! Port Impedance50               0                50               0                

1.66             0.0431218548641074 -158.27832893337 0.997770385018844 -69.6457421468332 0.997770385018843 -69.645742146833 0.0431130942589861 -160.365828382086 
! Gamma         !               0.0255615705175756 50.4169942055967 0.0255615705098276 50.4169942011239 
! Port Impedance50               0                50               0                

1.68             0.0433846118081888 -159.097117299077 0.997732862388008 -70.4847780175543 0.997732862388007 -70.4847780175542 0.0433752723010128 -161.187997698423 
! Gamma         !               0.025855453307934 51.0244278958292 0.0258554533004901 51.0244278914808 
! Port Impedance50               0                50               0                

1.7              0.0436384737554122 -159.915361370622 0.997695343730415 -71.3238234431496 0.997695343730414 -71.3238234431494 0.0436285351946551 -162.010047728433 
! Gamma         !               0.0261492764677793 51.6318615860106 0.0261492764606332 51.6318615817871 
! Port Impedance50               0                50               0                

1.72             0.043883354851267 -160.733053842686 0.997657837995476 -72.1628793834302 0.997657837995476 -72.1628793834301 0.0438727964750736 -162.831964866677 
! Gamma         !               0.0264430737835766 52.2392952760921 0.0264430737767213 52.2392952719934 
! Port Impedance50               0                50               0                

1.74             0.0441191699946232 -161.550186818113 0.997620353880085 -73.0019468163509 0.997620353880084 -73.0019468163508 0.0441079704220538 -163.653735511531 
! Gamma         !               0.026736875728522 52.8467289660306 0.0267368757219506 52.8467289620564 
! Port Impedance50               0                50               0                

1.76             0.0443458348483294 -162.366751796683 0.997582899819049 -73.841026737874 0.997582899819049 -73.8410267378739 0.0443339720701156 -164.475346033713 
! Gamma         !               0.0270307097264022 53.4541626557875 0.0270307097201074 53.4541626519366 
! Port Impedance50               0                50               0                

1.78             0.0445632658498897 -163.18273966226 0.997545483975577 -74.6801201618169 0.997545483975577 -74.6801201618168 0.0445507172186705 -165.296782745299 
! Gamma         !               0.0273246003944716 54.0615963453292 0.027324600388446 54.061596341601  
! Port Impedance50               0                50               0                

1.8              0.0447713802222066 -163.998140668302 0.997508114231824 -75.5192281196822 0.997508114231824 -75.519228119682 0.0447581224422098 -166.118031869081 
! Gamma         !               0.0276185697671696 54.6690300346266 0.0276185697614054 54.66903003102   
! Port Impedance50               0                50               0                

1.82             0.0449700959844122 -164.812944421683 0.997470798179492 -76.3583516604724 0.997470798179492 -76.3583516604723 0.044956105100534 -166.939079508107 
! Gamma         !               0.0279126375023202 55.2764637236541 0.0279126374968097 55.2764637201675 
! Port Impedance50               0                50               0                

1.84             0.0451593319627795 -165.62713986477 0.997433543110492 -77.1974918504888 0.997433543110492 -77.1974918504886 0.045144583349025 -167.759911615292 
! Gamma         !               0.0282068210712998 55.8838974123892 0.0282068210660352 55.8838974090208 
! Port Impedance50               0                50               0                

1.86             0.0453390078017293 -166.440715255725 0.997396356007668 -78.0366497731134 0.997396356007667 -78.0366497731133 0.0453234761489623 -168.580513962927 
! Gamma         !               0.028501135934518 56.4913311008133 0.0285011359294916 56.4913310975617 
! Port Impedance50               0                50               0                

1.88             0.0455090439749317 -167.253658146931 0.997359243535583 -78.8758265285774 0.997359243535582 -78.8758265285773 0.0454927032778917 -169.400872111982 
! Gamma         !               0.0287955957034305 57.0987647889102 0.0287955956986343 57.0987647857733 
! Port Impedance50               0                50               0                

1.9              0.0456693617965174 -168.065955361491 0.997322212031382 -79.7150232337131 0.997322212031382 -79.715023233713 0.0456521853400397 -170.220971381046 
! Gamma         !               0.0290902122901879 57.7061984766664 0.0290902122856143 57.7061984736421 
! Port Impedance50               0                50               0                

1.92             0.0458198834323995 -168.877592967696 0.997285267495712 -80.5542410216911 0.997285267495712 -80.554241021691 0.0458018437767891 -171.040796814782 
! Gamma         !               0.0293849960459268 58.3136321640708 0.029384996041568 58.3136321611571 
! Port Impedance50               0                50               0                

1.94             0.0459605319117201 -169.688556251377 0.997248415583725 -81.3934810417436 0.997248415583725 -81.3934810417435 0.0459416008772137 -171.860333151747 
! Gamma         !               0.0296799558886153 58.921065851114  0.0296799558844637 58.9210658483086 
! Port Impedance50               0                50               0                

1.96             0.0460912311384233 -170.498829686023 0.997211661596156 -82.2327444588719 0.997211661596156 -82.2327444588717 0.0460713797886826 -172.679564791453 
! Gamma         !               0.0299750994212842 59.5284995377892 0.0299750994173324 59.5284995350898 
! Port Impedance50               0                50               0                

1.98             0.0462119059029755 -171.30839690055 0.997175010470481 -83.0720324535404 0.99717501047048 -83.0720324535403 0.0461911045275272 -173.498475760503 
! Gamma         !               0.0302704330414035 60.1359332240907 0.0302704330376441 60.1359332214951 
! Port Impedance50               0                50               0                

2                0.0463224818942274 -172.117240644588 0.997138466772149 -83.9113462213565 0.997138466772149 -83.9113462213564 0.0463006999897968 -174.317049677689 
! Gamma         !               0.0305659620420936 60.7433669100149 0.0305659620385195 60.7433669075204 
! Port Impedance50               0                50               0                

2.02             0.0464228857114543 -172.925342751137 0.997102034685924 -84.7506869727354 0.997102034685923 -84.7506869727353 0.0464000919620896 -175.135269717858 
! Gamma         !               0.0308616907058046 61.3508005955593 0.0308616907024085 61.3508005931636 
! Port Impedance50               0                50               0                

2.04             0.0465130448765562 -173.732684096429 0.997065718007286 -85.5900559325521 0.997065718007286 -85.590055932552 0.0464892071324823 -175.953118574422 
! Gamma         !               0.031157622391041 61.9582342807225 0.031157622387816 61.9582342784232 
! Port Impedance50               0                50               0                

2.06             0.0465928878464549 -174.539244556832 0.997029520133959 -86.4294543397789 0.997029520133959 -86.4294543397788 0.0465679731015486 -176.770578420329 
! Gamma         !               0.0314537596126601 62.5656679655049 0.0314537596095995 62.5656679632992 
! Port Impedance50               0                50               0                

2.08             0.0466623440256949 -175.345002962585 0.996993444057506 -87.2688834471097 0.996993444057506 -87.2688834471096 0.0466363183934973 -177.587630867317 
! Gamma         !               0.0317501041162302 63.1731016499068 0.0317501041133273 63.1731016477926 
! Port Impedance50               0                50               0                

2.1              0.0467213437792574 -176.149937048171 0.996957492355053 -88.1083445205704 0.996957492355053 -88.1083445205702 0.0466941724674167 -178.404256923273 
! Gamma         !               0.0320466569468906 63.7805353339309 0.032046656944139 63.7805353319055 
! Port Impedance50               0                50               0                

2.12             0.0467698184456142 -176.954023399079 0.9969216671811  -88.9478388391158 0.9969216671811  -88.9478388391156 0.0467414657286458 -179.220436947502 
! Gamma         !               0.0323434185131241 64.3879690175795 0.0323434185105176 64.3879690156404 
! Port Impedance50               0                50               0                

2.14             0.046807700350035 -177.757237394724 0.996885970259454 -89.7873676942138 0.996885970259454 -89.7873676942136 0.0467781295402887 179.96384939632  
! Gamma         !               0.032640388645815 64.9954027008563 0.0326403886433474 64.9954026990009 
! Port Impedance50               0                50               0                

2.16             0.0468349228181612 -178.559553147222 0.996850402875268 -90.6269323894157 0.996850402875268 -90.6269323894156 0.0468040962348658 179.148623189709 
! Gamma         !               0.0329375666529392 65.6028363837654 0.0329375666506046 65.6028363819912 
! Port Impedance50               0                50               0                

2.18             0.0468514201898834 -179.360943435746 0.996814965867209 -91.4665342399142 0.99681496586721 -91.4665342399141 0.0468192991261297 178.333906311716 
! Gamma         !               0.0332349513702019 66.2102700663116 0.0332349513679946 66.2102700646162 
! Port Impedance50               0                50               0                

2.2              0.0468571278335233 179.838620363891 0.996779659619734 -92.3061745720874 0.996779659619735 -92.3061745720872 0.0468236725210529 177.519721494298 
! Gamma         !               0.0335325412079182 66.8177037484997 0.0335325412058326 66.8177037468809 
! Port Impedance50               0                50               0                

2.22             0.0468519821603663 179.039168354766 0.996744484055512 -93.1458547230306 0.996744484055512 -93.1458547230305 0.0468171517320005 176.706092380996 
! Gamma         !               0.0338303341944035 67.4251374303358 0.0338303341924343 67.4251374287908 
! Port Impedance50               0                50               0                

2.24             0.0468359206395511 178.240732199906 0.996709438627961 -93.9855760400759 0.996709438627962 -93.9855760400758 0.0467996730890982 175.893043589227 
! Gamma         !               0.0341283280161255 68.0325711118261 0.0341283280142674 68.0325711103525 
! Port Impedance50               0                50               0                

2.26             0.0468088818133657 177.443345209295 0.996674522313936 -94.825339880298 0.996674522313936 -94.8253398802979 0.0467711739528224 175.080600776519 
! Gamma         !               0.0344265200548462 68.6400047929764 0.0344265200530942 68.6400047915721 
! Port Impedance50               0                50               0                

2.28             0.0467708053129601 176.647042433304 0.996639733606546 -95.6651476100081 0.996639733606546 -95.665147610008 0.046731592726824 174.268790711044 
! Gamma         !               0.0347249074219672 69.2474384737939 0.0347249074203163 69.2474384724565 
! Port Impedance50               0                50               0                

2.3              0.0467216318745218 175.851860763078 0.996605070508126 -96.5050006042357 0.996605070508127 -96.5050006042356 0.0466808688709983 173.457641346833 
! Gamma         !               0.0350234869902745 69.8548721542856 0.0350234869887202 69.8548721530126 
! Port Impedance50               0                50               0                

2.32             0.0466613033559527 175.057839038436 0.996570530523359 -97.3449002461975 0.99657053052336 -97.3449002461973 0.0466189429148305 172.647181904111 
! Gamma         !               0.0353222554232676 70.462305834458  0.0353222554218052 70.4623058332475 
! Port Impedance50               0                50               0                

2.34             0.0465897627540734 174.265018163917 0.996536110652546 -98.1848479267545 0.996536110652546 -98.1848479267544 0.046545756471035 171.837442955197 
! Gamma         !               0.0356212092022364 71.0697395143194 0.0356212092008616 71.069739513169  
! Port Impedance50               0                50               0                

2.36             0.0465069542224139 173.473441233667 0.996501807385045 -99.0248450438573 0.996501807385045 -99.0248450438572 0.0464612522495102 171.028456516499 
! Gamma         !               0.0359203446512496 71.6771731938761 0.0359203446499581 71.6771731927837 
! Port Impedance50               0                50               0                

2.38             0.04641282308963 172.683153665918 0.996467616692874 -99.8648930019791 0.996467616692874 -99.864893001979 0.0463653740716363 170.220256147134 
! Gamma         !               0.0362196579601926 72.2846068731365 0.0362196579589805 72.2846068720999 
! Port Impedance50               0                50               0                

2.4              0.0463073158785947 171.894203347909 0.996433534024477 -100.704993211537 0.996433534024478 -100.704993211537 0.046258066884941 169.412877054817 
! Gamma         !               0.0365191452059958 72.892040552108  0.036519145204859 72.8920405511252 
! Port Impedance50               0                50               0                

2.42             0.0461903803262292 171.106640792153 0.996399554298681 -101.545147088302 0.996399554298682 -101.545147088302 0.0461392767781696 168.60635620966  
! Gamma         !               0.0368188023721742 73.4994742307981 0.0368188023711091 73.4994742298671 
! Port Impedance50               0                50               0                

2.44             0.0460619654041299 170.320519305088 0.996365671898814 -102.385356052797 0.996365671898814 -102.385356052797 0.0460089509967833 167.800732466653 
! Gamma         !               0.0371186253667978 74.1069079092147 0.0371186253658006 74.1069079083334 
! Port Impedance50               0                50               0                

2.46             0.0459220213400583 169.535895169228 0.996331880667022 -103.225621529684 0.996331880667022 -103.225621529684 0.0458670379589285 166.996046697626 
! Gamma         !               0.0374186100389982 74.7143415873654 0.0374186100380656 74.7143415865319 
! Port Impedance50               0                50               0                

2.48             0.0457704996403755 168.752827840065 0.996298173898775 -104.065944947141 0.996298173898775 -104.065944947141 0.0457134872719118 166.192341933609 
! Gamma         !               0.0377187521941156 75.3217752652579 0.0377187521932442 75.3217752644704 
! Port Impedance50               0                50               0                

2.5              0.0456073531134947 167.971380159099 0.996264544337562 -104.906327736224 0.996264544337563 -104.906327736224 0.0455482497492273 165.389663518592 
! Gamma         !               0.0380190476075768 75.9292089428998 0.0380190476067634 75.9292089421563 
! Port Impedance50               0                50               0                

2.52             0.0454325358944562 167.191618584531 0.996230984169796 -105.746771330225 0.996230984169797 -105.746771330225 0.0453712774281809 164.588059275796 
! Gamma         !               0.0383194920375931 76.5366426202988 0.0383194920368347 76.5366426195976 
! Port Impedance50               0                50               0                

2.54             0.0452460034707066 166.413613441329 0.996197485019919 -106.587277164012 0.99619748501992 -106.587277164012 0.0451825235881673 163.787579687695 
! Gamma         !               0.0386200812367599 77.1440762974624 0.0386200812360536 77.1440762968016 
! Port Impedance50               0                50               0                

2.56             0.0450477127092174 165.637439192541 0.996164037945715 -107.427846673363 0.996164037945715 -107.427846673363 0.0449819427696455 162.988278091168 
! Gamma         !               0.0389208109626331 77.751509974398  0.0389208109619759 77.7515099737762 
! Port Impedance50               0                50               0                

2.58             0.0448376218850454 164.863174733985 0.99613063343385 -108.268481294289 0.996130633433851 -108.268481294288 0.0447694907938964 162.190210889303 
! Gamma         !               0.0392216769873527 78.3589436511132 0.0392216769867421 78.3589436505286 
! Port Impedance50               0                50               0                

2.6              0.0446156907114862 164.090903714656 0.996097261395627 -109.109182462345 0.996097261395628 -109.109182462345 0.0445451247836112 161.393437781579 
! Gamma         !               0.039522675106382 78.9663773276152 0.0395226751058153 78.9663773270662 
! Port Impedance50               0                50               0                

2.62             0.0443818803719703 163.320714885482 0.996063911162963 -109.949951611935 0.996063911162964 -109.949951611935 0.0443088031844083 160.598022014329 
! Gamma         !               0.0398238011464204 79.5738110039112 0.0398238011458952 79.5738110033963 
! Port Impedance50               0                50               0                

2.64             0.0441361535538799 162.552702479364 0.99603057148461 -110.790790175603 0.996030571484611 -110.790790175603 0.0440604857873449 159.804030653633 
! Gamma         !               0.040125050972551 80.1812446800081 0.0401250509720648 80.1812446795258 