! Touchstone file exported from HFSS 2018.2.0
!        File:           C:/Users/10024/OneDrive - The University of Nottingham Ningbo China/Year 4/Final Year Project/HFSS project/Passive_Resonator_Antenna.aedt
!        Generated:      5:10:12 下午  3月 11, 2022
!        Design:         SMA_Thru
!        Project:        Passive_Resonator_Antenna
!        Setup:          Setup1
!        Solution:       Sweep
!
! Variables:
!        MW = 1.992mm
!        ThruL = 12mm
!        g = 0.2mm
!        subH = 0.8mm
!        subX = 20mm
!        subY = 22mm
!        tapW = 1.992mm
!
# GHZ S MA R 50.000000
! Modal data exported
! Port[1] = SMA_CONNECTOR1_1:1
! Port[2] = SMA_CONNECTOR2_1:1
1                0.0199353172930775 -152.126469304243 0.998251208836882 -63.9338109420289 0.998251208836882 -63.933810942029 0.0199250227079774 -154.355730323614 
! Gamma         !               0.0151858380091057 30.371683611207  0.0151858380091571 30.3716836111864 
! Port Impedance50               0                50               0                

1.02             0.0201527450577407 -153.357771958081 0.998198196612637 -65.2122156177886 0.998198196612637 -65.2122156177887 0.0201415802638456 -155.564548708435 
! Gamma         !               0.015497560621515 30.9791172698093 0.0154975606207141 30.9791172694511 
! Port Impedance50               0                50               0                

1.04             0.0203599770546026 -154.587104924201 0.998144558054361 -66.490611733563 0.998144558054361 -66.4906117335631 0.0203479233785365 -156.773141624417 
! Gamma         !               0.0158078130975314 31.5865509310499 0.0158078130960526 31.5865509304175 
! Port Impedance50               0                50               0                

1.06             0.0205568700191028 -155.814434040968 0.998090310513075 -67.7689997603039 0.998090310513074 -67.7689997603039 0.0205439076631378 -157.981413483955 
! Gamma         !               0.0161167926237323 32.1939845945441 0.0161167926217223 32.1939845936923 
! Port Impedance50               0                50               0                

1.08             0.0207432840504474 -157.039720578997 0.998035471084633 -69.047380194328 0.998035471084633 -69.0473801943281 0.0207293920505917 -159.189270668891 
! Gamma         !               0.0164246726607217 32.8014182599606 0.0164246726583038 32.8014182589362 
! Port Impedance50               0                50               0                

1.1              0.0209190826777114 -158.26292115405 0.997980056589348 -70.3257535569042 0.997980056589348 -70.3257535569042 0.0209042388558106 -160.396620974658 
! Gamma         !               0.016731605763583 33.4088519270119 0.0167316057608605 33.408851925855  
! Port Impedance50               0                50               0                

1.12             0.0210841329258673 -159.483987612271 0.997924083552027 -71.6041203938045 0.997924083552027 -71.6041203938046 0.0210683138356647 -161.603373086862 
! Gamma         !               0.0170377260485418 34.0162855954494 0.0170377260456005 34.0162855941945 
! Port Impedance50               0                50               0                

1.14             0.0212383053817475 -160.702866887584 0.997867568182478 -72.8824812748184 0.997867568182478 -72.8824812748185 0.0212214862488137 -162.80943608367 
! Gamma         !               0.0173431513545312 34.6237192650584 0.0173431513514431 34.6237192637341 
! Port Impedance50               0                50               0                

1.16             0.0213814742599851 -161.919500830663 0.997810526356479 -74.1608367932299 0.997810526356479 -74.1608367932299 0.0213636289153728 -164.01471895793 
! Gamma         !               0.0176479851409222 35.231152935652  0.0176479851377468 35.2311529342829 
! Port Impedance50               0                50               0                

1.18             0.021513517468993 -163.133826008503 0.997752973597238 -75.439187565258 0.997752973597239 -75.439187565258 0.0214946182764012 -165.219130153449 
! Gamma         !               0.0179523181564936 35.83858660707   0.0179523181532799 35.8385866056768 
! Port Impedance50               0                50               0                

1.2              0.0216343166770134 -164.345773473279 0.997694925057377 -76.7175342294601 0.997694925057376 -76.7175342294602 0.021614334453217 -166.422577110231 
! Gamma         !               0.0182562299095599 36.4460202791729 0.0182562299063479 36.4460202777729 
! Port Impedance50               0                50               0                

1.22             0.0217437573783428 -165.555268498754 0.997636395501443 -77.9958774460986 0.997636395501444 -77.9958774460986 0.0217226613065598 -167.624965813676 
! Gamma         !               0.0185597899648424 37.0534539518399 0.0185597899616649 37.0534539504477 
! Port Impedance50               0                50               0                

1.24             0.0218417289597929 -166.762230282136 0.997577399288994 -79.27421789647  0.997577399288994 -79.27421789647  0.0218194864956054 -168.826200343006 
! Gamma         !               0.018863059089036 37.6608876249679 0.0188630590859191 37.6608876235951 
! Port Impedance50               0                50               0                

1.26             0.0219281247674935 -167.966571608872 0.997517950358246 -80.5525562821984 0.997517950358247 -80.5525562821985 0.0219047015368967 -170.026182414162 
! Gamma         !               0.0191660902639552 38.2683212984672 0.0191660902609198 38.2683212971235 
! Port Impedance50               0                50               0                

1.28             0.0220028421741684 -169.168198477385 0.997458062210348 -81.8308933244918 0.997458062210349 -81.8308933244919 0.0219782018632049 -171.224810912538 
! Gamma         !               0.0194689295835469 38.8757549722607 0.0194689295806091 38.8757549709537 
! Port Impedance50               0                50               0                

1.3              0.0220657826469973 -170.367009680329 0.997397747894262 -83.1092297633624 0.997397747894262 -83.1092297633624 0.022039886882404 -172.421981410741 
! Gamma         !               0.0197716170488595 39.4831886462829 0.0197716170460316 39.4831886450189 
! Port Impedance50               0                50               0                

1.32             0.022116851816241 -171.562896338348 0.997337019992304 -84.3875663568112 0.997337019992305 -84.3875663568113 0.0220896600364234 -173.617585666505 
! Gamma         !               0.0200741872731833 40.0906223204764 0.020074187270474 40.0906223192603 
! Port Impedance50               0                50               0                

1.34             0.022155959544805 -172.755741381793 0.997275890606356 -85.6659038799776 0.997275890606356 -85.6659038799776 0.0221274288603634 -174.811511095601 
! Gamma         !               0.0203766701079767 40.6980559947943 0.0203766701053925 40.6980559936293 
! Port Impedance50               0                50               0                

1.36             0.0221830199989465 -173.945418975119 0.997214371344763 -86.9442431242536 0.997214371344763 -86.9442431242537 0.0221531050418765 -176.003640214287 
! Gamma         !               0.020679091198834 41.305489669195  0.0206790911963787 41.3054896680838 
! Port Impedance50               0                50               0                

1.38             0.0221979517203628 -175.131793877993 0.997152473309955 -88.2225848963646 0.997152473309955 -88.2225848963646 0.0221666044809513 -177.193850045449 
! Gamma         !               0.0209814724795641 41.9129233436439 0.0209814724772398 41.9129233425877 
! Port Impedance50               0                50               0                

1.4              0.0222006776999392 -176.314720736265 0.997090207086801 -89.500930017416 0.997090207086801 -89.5009300174161 0.0221678473502224 -178.382011482061 
! Gamma         !               0.021283832611454 42.5203570181123 0.0212838326092611 42.5203570171121 
! Port Impedance50               0                50               0                

1.42             0.0221911254534698 -177.49404329498 0.997027582731724 -90.7792793219081 0.997027582731724 -90.7792793219082 0.0221567581559842 -179.567988600956 
! Gamma         !               0.0215861873739135 43.1277906925755 0.021586187371851 43.1277906916316 
! Port Impedance50               0                50               0                

1.44             0.0221692270996974 -178.669593524502 0.996964609762594 -92.0576336567183 0.996964609762595 -92.0576336567183 0.0221332658001014 179.248362080797 
! Gamma         !               0.0218885500119457 43.7352243670134 0.0218885500100117 43.7352243661252 
! Port Impedance50               0                50               0                

1.46             0.0221349194410923 -179.841190649552 0.996901297149433 -93.3359938800529 0.996901297149434 -93.335993880053 0.022097303643028 178.067192415572 
! Gamma         !               0.0221909315452392 44.3426580414099 0.0221909315434309 44.3426580405768 
! Port Impedance50               0                50               0                

1.48             0.0220881440478317 178.991359930539 0.99683765330593 -94.6143608603699 0.99683765330593 -94.6143608603699 0.0220488095682008 176.888663510599 
! Gamma         !               0.0224933410431107 44.9500917157512 0.0224933410414243 44.9500917149722 
! Port Impedance50               0                50               0                

1.5              0.0220288473455191 177.82826784375  0.996773686081806 -95.8927354752717 0.996773686081807 -95.8927354752717 0.0219877260481031 175.712946700063 
! Gamma         !               0.022795785869031 45.5575253900263 0.0227957858674627 45.5575253892998 
! Port Impedance50               0                50               0                

1.52             0.0219569807072588 176.669759084861 0.99670940275605 -97.1711186103721 0.996709402756052 -97.1711186103721 0.0219140002123198 174.540224616331 
! Gamma         !               0.0230982718980423 46.1649590642281 0.0230982718965876 46.1649590635523 
! Port Impedance50               0                50               0                

1.54             0.0218725005507877 175.516077510202 0.996644810031026 -98.4495111581365 0.996644810031027 -98.4495111581365 0.0218275839180006 173.370692374497 
! Gamma         !               0.023400803709996 46.7723927383493 0.02340080370865 46.7723927377225 
! Port Impedance50               0                50               0                

1.56             0.021775368441497 174.367486508084 0.996579914027487 -99.7279140166973 0.996579914027488 -99.7279140166974 0.0217284338231654 172.204558886518 
! Gamma         !               0.0237033847612089 47.3798264123857 0.0237033847599669 47.3798264118058 
! Port Impedance50               0                50               0                

1.58             0.0216655512022602 173.22427086849  0.996514720280517 -101.006328088648 0.996514720280518 -101.006328088648 0.0216165114633857 171.042048323658 
! Gamma         !               0.0240060175368516 47.9872600863344 0.0240060175357083 47.9872600857996 
! Port Impedance50               0                50               0                

1.6              0.0215430210311921 172.086738879331 0.996449233736397 -102.284754279813 0.996449233736399 -102.284754279813 0.0214917833324421 169.883401748892 
! Gamma         !               0.024308703686123 48.5946937601935 0.0243087036850734 48.5946937597014 
! Port Impedance50               0                50               0                

1.62             0.0214077556285725 170.955224680992 0.996383458750437 -103.563193498001 0.996383458750438 -103.563193498001 0.021354220967669 168.728878944347 
! Gamma         !               0.0246114441420452 49.202127433962  0.024611444141084 49.2021274335106 
! Port Impedance50               0                50               0                

1.64             0.0212597383344379 169.830090916061 0.996317399085768 -104.841646651738 0.996317399085769 -104.841646651738 0.0212038010408131 167.578760463    
! Gamma         !               0.0249142392275096 49.8095611076406 0.0249142392266318 49.8095611072274 
! Port Impedance50               0                50               0                

1.66             0.0210989582785443 168.71173171733  0.996251057913128 -106.120114648988 0.996251057913128 -106.120114648988 0.0210405054553556 166.433349938745 
! Gamma         !               0.0252170887490388 50.4169947812298 0.0252170887482393 50.416994780853  
! Port Impedance50               0                50               0                

1.68             0.0209254105447337 167.600576084481 0.996184437811634 -107.398598395854 0.996184437811634 -107.398598395854 0.0208643214514487 165.292976694821 
! Gamma         !               0.0255199920795611 51.0244284547313 0.0255199920788349 51.0244284543886 
! Port Impedance50               0                50               0                

1.7              0.0207390963520546 166.497091708641 0.996117540770571 -108.677098795272 0.996117540770572 -108.677098795272 0.0206752417197812 164.157998697668 
! Gamma         !               0.0258229482313696 51.6318621281474 0.0258229482307121 51.6318621278365 
! Port Impedance50               0                50               0                

1.72             0.0205400232554552 165.401789314481 0.9960503681922  -109.955616745695 0.996050368192201 -109.955616745695 0.0204732645259418 163.028805911753 
! Gamma         !               0.0261259559203071 52.2392958014803 0.0261259559197137 52.2392958011993 
! Port Impedance50               0                50               0                

1.74             0.0203282053693397 164.31522760216  0.995982920895585 -111.234153139765 0.995982920895585 -111.234153139765 0.0202583938471718 161.905824121208 
! Gamma         !               0.0264290136221118 52.8467294747331 0.0264290136215779 52.8467294744798 
! Port Impedance50               0                50               0                

1.76             0.0201036636179078 163.238018886625 0.995915199121468 -112.512708862986 0.99591519912147 -112.512708862986 0.0200306395236868 160.789519296623 
! Gamma         !               0.0267321196217624 53.4541631479084 0.0267321196212837 53.4541631476811 
! Port Impedance50               0                50               0                

1.78             0.0198664260169725 162.170835550219 0.995847202538187 -113.791284792391 0.995847202538187 -113.791284792391 0.0197900174272517 159.680402600477 
! Gamma         !               0.0270352720565726 54.0615968210103 0.027035272056145 54.0615968208068 
! Port Impedance50               0                50               0                

1.8              0.0196165279928346 161.114417446937 0.995778930248622 -115.069881795206 0.995778930248623 -115.069881795206 0.0195365496501844 158.579036143398 
! Gamma         !               0.027338468953713 54.669030494041  0.0273384689533326 54.6690304938599 
! Port Impedance50               0                50               0                

1.82             0.0193540127449472 160.069580423996 0.995710380798217 -116.348500727521 0.995710380798218 -116.348500727521 0.0192702647186112 157.48603962624  
! Gamma         !               0.0276417082627578 55.276464167005  0.0276417082624208 55.2764641668444 
! Port Impedance50               0                50               0                

1.84             0.0190789316604746 159.037226159875 0.995641552184033 -117.627142432962 0.995641552184034 -117.627142432962 0.0189911978346579 156.402098031237 
! Gamma         !               0.0279449878838077 55.8838978399054 0.0279449878835106 55.8838978397635 
! Port Impedance50               0                50               0                

1.86             0.0187913447905755 158.018353559154 0.995572441864857 -118.905807741372 0.995572441864858 -118.905807741372 0.0186993911531936 155.327970560554 
! Gamma         !               0.0282483056916703 56.4913315127456 0.0282483056914098 56.491331512621  
! Port Impedance50               0                50               0                

1.88             0.0184913214003519 157.014071995379 0.995503046772359 -120.184497467501 0.99550304677236 -120.184497467501 0.0183948941000817 154.264501064205 
! Gamma         !               0.028551659556538 57.0987651855295 0.0285516595563108 57.0987651854205 
! Port Impedance50               0                50               0                

1.9              0.0181789406071189 156.025616756302 0.99543336332329 -121.463212409706 0.995433363323291 -121.463212409706 0.0180777637404229 153.212630254125 
! Gamma         !               0.028855047361556 57.70619885826   0.0288550473613593 57.7061988581655 
! Port Impedance50               0                50               0                

1.92             0.0178542921249237 155.054367124631 0.995363387432713 -122.741953348669 0.995363387432713 -122.741953348669 0.017748065207309 152.173410070142 
! Gamma         !               0.0291584670176335 58.3136325309411 0.0291584670174646 58.3136325308598 
! Port Impedance50               0                50               0                

1.94             0.0175174771375284 154.101867626013 0.995293114528264 -124.020721046135 0.995293114528265 -124.020721046135 0.0174058722041517 151.148020651141 
! Gamma         !               0.0294619164758146 58.9210662035756 0.0294619164756708 58.9210662035062 
! Port Impedance50               0                50               0                

1.96             0.0171686093274147 153.169853100109 0.99522253956543 -125.299516243658 0.99522253956543 -125.299516243658 0.0170512675969174 150.13779047622  
! Gamma         !               0.0297653937374917 59.5284998761671 0.0297653937373706 59.5284998761082 
! Port Impedance50               0                50               0                

1.98             0.0168078160951864 152.260278407714 0.995151657043822 -126.578339661388 0.995151657043823 -126.578339661388 0.0166843441168202 149.144220383821 
! Gamma         !               0.0300688968627195 60.1359335487183 0.0300688968626187 60.135933548669  
! Port Impedance50               0                50               0                

2                0.0164352400125989 151.375353786486 0.995080461024449 -127.857191996867 0.99508046102445 -127.857191996867 0.0163052051994876 148.169012361725 
! Gamma         !               0.0303724239768548 60.7433672212324 0.0303724239767722 60.7433672211918 
! Port Impedance50               0                50               0                

2.02             0.0160510405637719 150.517587123059 0.995008945147955 -129.136073923864 0.995008945147956 -129.136073923864 0.0159139659937637 147.214104241243 
! Gamma         !               0.0306759732757301 61.3508008937123 0.0306759732756638 61.3508008936792 
! Port Impedance50               0                50               0                

2.04             0.0156553962439776 149.689834737069 0.994937102653814 -130.414986091234 0.994937102653814 -130.414986091234 0.0155107545827676 146.281711744032 
! Gamma         !               0.0309795430295424 61.9582345661605 0.0309795430294905 61.9582345661343 
! Port Impedance50               0                50               0                

2.06             0.015248507104794 148.895362695896 0.994864926400451 -131.693929121815 0.994864926400452 -131.693929121815 0.0150957134723119 145.374379745696 
! Gamma         !               0.0312831315856227 62.5656682385801 0.0312831315855836 62.5656682385598 
! Port Impedance50               0                50               0                

2.08             0.0148305978600105 148.13792122828  0.994792408886282 -132.972903611358 0.994792408886283 -132.972903611358 0.0146690014186176 144.495045173558 
! Gamma         !               0.0315867373702337 63.173101910973  0.0315867373702059 63.173101910958  
! Port Impedance50               0                50               0                

2.1              0.0144019217007387 147.421835521411 0.994719542271634 -134.251910127497 0.994719542271635 -134.251910127497 0.0142307956899537 143.64711469798  
! Gamma         !               0.0318903588895255 63.7805355833417 0.0318903588895076 63.7805355833312 
! Port Impedance50               0                50               0                

2.12             0.0139627650137711 146.752117124922 0.994646318401521 -135.530949208757 0.994646318401522 -135.530949208757 0.0137812948878633 142.834561380398 
! Gamma         !               0.0321939947297682 64.3879692556885 0.0321939947297588 64.3879692556819 
! Port Impedance50               0                50               0                

2.14             0.0135134532588036 146.134601420371 0.994572728829256 -136.81002136361 0.994572728829256 -136.81002136361 0.0133207224964449 142.0620458117   
! Gamma         !               0.0324976435569652 64.9954029280155 0.0324976435569632 64.9954029280125 
! Port Impedance50               0                50               0                

2.16             0.0130543583438993 145.576118245199 0.99449876484086 -138.089127069571 0.994498764840861 -138.089127069571 0.0128493313878887 141.335069162445 
! Gamma         !               0.0328013041159411 65.6028366003245 0.0328013041159454 65.6028366003242 
! Port Impedance50               0                50               0                

2.18             0.0125859079534236 145.08470491647  0.994424417480243 -139.368266772349 0.994424417480244 -139.368266772349 0.0123674095967252 140.660168192512 
! Gamma         !               0.0331049752289859 66.2102702726174 0.0331049752289954 66.2102702726194 
! Port Impedance50               0                50               0                

2.2              0.0121085974414343 144.669873752208 0.994349677575114 -140.647440885039 0.994349677575114 -140.647440885039 0.0118752877955811 140.045165956008 
! Gamma         !               0.0334086557941295 66.817703944896  0.0334086557941435 66.8177039449    
! Port Impedance50               0                50               0                

2.22             0.0116230051245112 144.342949949726 0.994274535763597 -141.926649787372 0.994274535763598 -141.926649787372 0.011373349079346 139.499497167937 
! Gamma         !               0.0337123447831133 67.4251376171617 0.0337123447831309 67.4251376171673 
! Port Impedance50               0                50               0                

2.24             0.0111298121179025 144.117500602673 0.994198982521509 -143.205893825022 0.994198982521509 -143.205893825022 0.0108620419197885 139.034634688987 
! Gamma         !               0.0340160412391136 68.032571289416  0.034016041239134 68.0325712894228 
! Port Impedance50               0                50               0                

2.26             0.0106298282957703 144.009881978093 0.99412300819026 -144.48517330896 0.994123008190261 -144.48517330896 0.010341897532045 138.664654405505 
! Gamma         !               0.0343197442742691 68.6400049616604 0.0343197442742916 68.6400049616682 
! Port Impedance50               0                50               0                

2.28             0.0101240265748777 144.039940094526 0.994046603005348 -145.764488514873 0.994046603005348 -145.764488514873 0.00981355346649513 138.406991538472 
! Gamma         !               0.0346234530670586 69.2474386338961 0.0346234530670828 69.2474386339045 
! Port Impedance50               0                50               0                

2.3              0.0096135885975546 144.231908966117 0.99396975712539 -147.043839682646 0.99396975712539 -147.043839682646 0.00927778611521171 138.283464486577 
! Gamma         !               0.0349271668595658 69.8548723061241 0.034927166859591 69.8548723061329 
! Port Impedance50               0                50               0                

2.32             0.0090999661265795 144.61556051232  0.993892460661666 -148.323227015891 0.993892460661667 -148.323227015891 0.00873555618214316 138.321676143092 
! Gamma         !               0.0352308849546663 70.4623059783457 0.0352308849546922 70.4623059783546 
! Port Impedance50               0                50               0                

2.34             0.00858496418790426 145.227666785683 0.993814703708124 -149.602650681559 0.993814703708125 -149.602650681559 0.00818807330801327 138.556951951235 
! Gamma         !               0.0355346067131679 71.0697396505619 0.0355346067131941 71.0697396505709 
! Port Impedance50               0                50               0                

2.36             0.00807085433043253 146.113830585527 0.993736476371796 -150.882110809598 0.993736476371798 -150.882110809598 0.00763688945438888 139.035044428459 
! Gamma         !               0.0358383315509287 71.6771733227732 0.0358383315509547 71.6771733227822 
! Port Impedance50               0                50               0                

2.38             0.00756052934622653 147.330705746627 0.993657768803601 -152.161607492693 0.9936577688036  -152.161607492693 0.00708403613494923 139.815929577217 
! Gamma         !               0.0361420589359751 72.2846069949808 0.0361420589360007 72.2846069949894 
! Port Impedance50               0                50               0                

2.4              0.00705771409197598 148.94852245423  0.99357857122946 -153.441140786059 0.99357857122946 -153.441140786059 0.0065322293878308 140.979134745831 
! Gamma         !               0.0364457883856412 72.8920406671853 0.0364457883856661 72.8920406671936 
! Port Impedance50               0                50               0                

2.42             0.0065672493690244 151.053572599075 0.993498873981717 -154.720710707312 0.993498873981718 -154.720710707312 0.00598518028424563 142.631123198296 
! Gamma         !               0.0367495194637433 73.4994743393873 0.0367495194637673 73.4994743393951 
! Port Impedance50               0                50               0                

2.44             0.00609546341027349 153.749740764266 0.993418667530778 -156.000317236407 0.993418667530779 -156.000317236407 0.00544806954805077 144.915145590711 
! Gamma         !               0.0370532517778049 74.1069080115876 0.0370532517778278 74.1069080115948 
! Port Impedance50               0                50               0                

2.46             0.00565062932392292 157.157046129746 0.993337942516941 -157.279960315648 0.993337942516941 -157.279960315648 0.00492827140871354 148.023125211934 
! Gamma         !               0.0373569849763433 74.7143416837865 0.0373569849763649 74.7143416837931 
! Port Impedance50               0                50               0                

2.48             0.00524345817156694 161.403262437574 0.993256689782382 -158.559639849761 0.993256689782382 -158.559639849761 0.00443642906211271 152.206144897232 
! Gamma         !               0.0376607187462273 75.3217753559846 0.0376607187462476 75.3217753559904 
! Port Impedance50               0                50               0                

2.5              0.00488746654317358 166.602320923715 0.993174900403226 -159.839355706054 0.993174900403226 -159.839355706054 0.00398792892288445 157.771712898262 
! Gamma         !               0.0379644528101147 75.9292090281822 0.0379644528101336 75.9292090281874 
! Port Impedance50               0                50               0                

2.52             0.00459886402632862 172.812677967226 0.993092565721658 -161.119107714637 0.993092565721658 -161.119107714637 0.00360450432702283 165.037615742712 
! Gamma         !               0.0382681869239742 76.5366427003797 0.0382681869239915 76.5366427003841 
! Port Impedance50               0                50               0                

2.54             0.00439539982312661 179.976301893023 0.993009677378053 -162.398895668718 0.993009677378053 -162.398895668719 0.0033147563480926 174.189335156648 
! Gamma         !               0.0385719208746973 77.1440763725775 0.038571920874713 77.1440763725813 
! Port Impedance50               0                50               0                

2.56             0.00429368823773512 -172.138748500798 0.99292622734303 -163.678719324984 0.992926227343031 -163.678719324984 0.00315080590661245 -174.983140174998 
! Gamma         !               0.0388756544778053 77.7515100447759 0.0388756544778194 77.7515100447789 
! Port Impedance50               0                50               0                

2.58             0.00430534968047055 -163.94231474972 0.992842207949434 -164.958578404035 0.992842207949435 -164.958578404035 0.00313851116173987 -163.302512815952 
! Gamma         !               0.0391793875752514 78.3589437169749 0.0391793875752638 78.3589437169772 
! Port Impedance50               0                50               0                

2.6              0.00443367718714568 -155.934214683465 0.992757611924147 -166.238472590917 0.992757611924146 -166.238472590917 0.00328524376953145 -152.005948866098 
! Gamma         !               0.0394831200333205 78.9663773891751 0.0394831200333313 78.9663773891766 
! Port Impedance50               0                50               0                

2.62             0.00467295136297572 -148.558862723393 0.992672432419715 -167.518401535709 0.992672432419715 -167.518401535709 0.00357655125653784 -142.135268953623 
! Gamma         !               0.0397868517406288 79.5738110613764 0.0397868517406379 79.5738110613772 
! Port Impedance50               0                50               0                

2.64             0.00501083525758761 -142.096055562367 0.992586663045737 -168.798364854199 0.992586663045737 -168.798364854199 0.00398528525807121 -134.131501102055 
! Gamma         !               0.0400905826062209 80.181244733579  0.0400905826062285 80.1812447335791 
! Port Impedance50               0                50               0                
