! Touchstone file exported from HFSS 2018.2.0
!        File:           C:/Users/10024/OneDrive - The University of Nottingham Ningbo China/Year 4/Final Year Project/HFSS project/Passive_Resonator_Antenna.aedt
!        Generated:      5:10:34 下午  3月 11, 2022
!        Design:         SMA_Thru
!        Project:        Passive_Resonator_Antenna
!        Setup:          Setup1
!        Solution:       Sweep
!
! Variables:
!        MW = 1.992mm
!        ThruL = 16mm
!        g = 0.2mm
!        subH = 0.8mm
!        subX = 20mm
!        subY = 26mm
!        tapW = 1.992mm
!
# GHZ S MA R 50.000000
! Modal data exported
! Port[1] = SMA_CONNECTOR1_1:1
! Port[2] = SMA_CONNECTOR2_1:1
1                0.0206353380543021 -161.980272432264 0.997872281091198 -71.509571072716 0.997872281091198 -71.509571072716 0.0206511962640119 -158.979207955561 
! Gamma         !               0.0151858380091464 30.3716836112162 0.0151858380091249 30.3716836111819 
! Port Impedance50               0                50               0                

1.02             0.0208069204310775 -163.232326073926 0.997809829763642 -72.9392644381997 0.997809829763643 -72.9392644381997 0.0208239420648825 -160.406917014113 
! Gamma         !               0.0154975606210694 30.9791172695424 0.0154975606209663 30.9791172695329 
! Port Impedance50               0                50               0                

1.04             0.0209640685717842 -164.487876715491 0.997746715348496 -74.3689462532455 0.997746715348496 -74.3689462532455 0.0209820241050403 -161.834431292716 
! Gamma         !               0.01580781309671 31.5865509305587 0.0158078130965363 31.5865509305707 
! Port Impedance50               0                50               0                

1.06             0.0211065409729767 -165.746442371879 0.997682952886717 -75.7986172136609 0.997682952886717 -75.7986172136609 0.0211252076530258 -163.26156857649 
! Gamma         !               0.0161167926226265 32.193984593873  0.0161167926223921 32.1939845939038 
! Port Impedance50               0                50               0                

1.08             0.0212341083067909 -167.007547925458 0.997618557163181 -77.2282780102957 0.997618557163182 -77.2282780102957 0.0212532693865194 -164.688138707918 
! Gamma         !               0.0164246726594071 32.8014182591477 0.016424672659121 32.801418259195  
! Port Impedance50               0                50               0                

1.1              0.0213465538745431 -168.27072333498 0.997553542745659 -78.6579293296438 0.99755354274566 -78.6579293296438 0.0213659978451527 -166.113943610353 
! Gamma         !               0.0167316057621215 33.4088519260896 0.0167316057617921 33.4088519261511 
! Port Impedance50               0                50               0                

1.12             0.0214436740267384 -169.535501938217 0.997487924020536 -80.087571854759 0.997487924020536 -80.087571854759 0.0214631938466872 -167.538777263011 
! Gamma         !               0.0170377260469838 34.0162855944457 0.0170377260466186 34.0162855945195 
! Port Impedance50               0                50               0                

1.14             0.0215252785474911 -170.801418819502 0.997421715224655 -81.5172062664563 0.997421715224656 -81.5172062664563 0.0215446708648619 -168.96242562173 
! Gamma         !               0.0173431513529178 34.6237192639968 0.0173431513525237 34.623719264081  
! Port Impedance50               0                50               0                

1.16             0.0215911910016782 -172.068009214852 0.997354930472774 -82.946833244766 0.997354930472776 -82.946833244766 0.0216102553674726 -170.384666478884 
! Gamma         !               0.0176479851392864 35.2311529345528 0.0176479851388695 35.2311529346457 
! Port Impedance50               0                50               0                

1.18             0.0216412490435782 -173.334806928303 0.997287583780124 -84.3764534706065 0.997287583780126 -84.3764534706065 0.0216597871135553 -171.805269254943 
! Gamma         !               0.0179523181548619 35.8385866059498 0.0179523181544277 35.8385866060502 
! Port Impedance50               0                50               0                

1.2              0.0216753046861387 -174.601342733436 0.997219689079696 -85.806067627637 0.997219689079698 -85.806067627637 0.0216931194088662 -173.223994713052 
! Gamma         !               0.018256229907953 36.4460202780458 0.0182562299075065 36.4460202781527 
! Port Impedance50               0                50               0                

1.22             0.0216932245303952 -175.867142733955 0.997151260233944 -87.2356764042492 0.997151260233945 -87.2356764042492 0.021710119319115 -174.640594586783 
! Gamma         !               0.0185597899632766 37.0534539507178 0.0185597899628222 37.0534539508296 
! Port Impedance50               0                50               0                

1.24             0.0216948899550114 -177.131726656503 0.997082311040642 -88.6652804956576 0.997082311040645 -88.6652804956576 0.021710667840792 -176.054811109806 
! Gamma         !               0.0188630590875235 37.6608876238607 0.0188630590870653 37.6608876239763 
! Port Impedance50               0                50               0                

1.26             0.021680197266309 -178.394606047664 0.997012855232798 -90.094880606044 0.9970128552328  -90.094880606044 0.0216946600297041 -177.466376434526 
! Gamma         !               0.0191660902625052 38.2683212973823 0.0191660902620465 38.2683212975012 
! Port Impedance50               0                50               0                

1.28             0.0216490578096148 -179.655282345288 0.996942906472498 -91.5244774507128 0.9969429064725  -91.5244774507128 0.0216620050877184 -178.875011924824 
! Gamma         !               0.0194689295821658 38.8757549712049 0.0194689295817097 38.8757549713262 
! Port Impedance50               0                50               0                

1.3              0.0216013980431851 179.086755208182 0.996872478338779 -92.9540717582131 0.99687247833878 -92.9540717582131 0.0216126264085105 179.719572694265 
! Gamma         !               0.0197716170475517 39.4831886452608 0.0197716170471007 39.4831886453839 
! Port Impedance50               0                50               0                

1.32             0.021537159576432 177.832031845918 0.996801584309597 -94.3836642723854 0.9968015843096  -94.3836642723853 0.0215464615834965 178.317680349803 
! Gamma         !               0.020074187271951 40.0906223194926 0.0200741872715075 40.0906223196163 
! Port Impedance50               0                50               0                

1.34             0.0214562991746733 176.581089790019 0.99673023773812 -95.8132557542892 0.996730237738122 -95.8132557542891 0.0214634623694423 176.919627820203 
! Gamma         !               0.0203766701068211 40.6980559938512 0.0203766701063871 40.6980559939754 
! Port Impedance50               0                50               0                

1.36             0.0213587887331094 175.334491042536 0.99665845182361 -97.2428469839731 0.996658451823613 -97.2428469839731 0.021363594619638 175.525747147395 
! Gamma         !               0.0206790911977548 41.3054896682948 0.020679091197332 41.3054896684188 
! Port Impedance50               0                50               0                

1.38             0.0212446152232836 174.092820504961 0.996586239577278 -98.6724387620474 0.99658623957728 -98.6724387620474 0.0212468381808331 174.136387293398 
! Gamma         !               0.0209814724785604 41.9129233427879 0.0209814724781499 41.9129233429113 
! Port Impedance50               0                50               0                

1.4              0.0211137806158251 172.856689484542 0.996513613783523 -100.102031911025 0.996513613783525 -100.102031911025 0.0211131867585521 172.751916078263 
! Gamma         !               0.0212838326105239 42.5203570173011 0.0212838326101271 42.5203570174236 
! Port Impedance50               0                50               0                

1.42             0.0209663017839081 171.626739654971 0.996440586957072 -101.531627276399 0.996440586957075 -101.531627276399 0.0209626477537376 171.37272244306  
! Gamma         !               0.0215861873730547 43.1277906918096 0.0215861873726724 43.1277906919306 
! Port Impedance50               0                50               0                

1.44             0.020802210392509 170.403647550248 0.996367171296584 -102.961225727424 0.996367171296587 -102.961225727424 0.0207952420741007 169.999219089551 
! Gamma         !               0.0218885500111554 43.7352243662923 0.0218885500107883 43.7352243664115 
! Port Impedance50               0                50               0                

1.46             0.020621552779298 169.188129684255 0.996293378635307 -104.390828157583 0.996293378635309 -104.390828157583 0.0206110039239369 168.631845558046 
! Gamma         !               0.0221909315445142 44.3426580407331 0.022190931544163 44.3426580408503 
! Port Impedance50               0                50               0                

1.48             0.0204243898338244 167.980948405289 0.996219220389471 -105.820435484713 0.996219220389474 -105.820435484713 0.0204099805766346 167.271071816841 
! Gamma         !               0.0224933410424476 44.9500917151181 0.0224933410421124 44.950091715233  
! Port Impedance50               0                50               0                

1.5              0.0202107968826391 166.782918615317 0.996144707505109 -107.250048650775 0.996144707505111 -107.250048650775 0.0201922321345922 165.917402451355 
! Gamma         !               0.0227957858684265 45.5575253894355 0.0227957858681077 45.557525389548  
! Port Impedance50               0                50               0                

1.52             0.0199808635890773 165.594915508891 0.996069850403989 -108.679668621263 0.996069850403991 -108.679668621263 0.0199578312817643 164.571381559126 
! Gamma         !               0.0230982718974929 46.1649590636781 0.0230982718971905 46.1649590637879 
! Port Impedance50               0                50               0                

1.54             0.0197346938777883 164.417883517631 0.995994658929437 -110.109296384227 0.995994658929439 -110.109296384227 0.0197068630347266 163.233598479265 
! Gamma         !               0.0234008037094981 46.772392737839  0.0234008037092122 46.772392737946  
! Port Impedance50               0                50               0                

1.56             0.0194724058956448 163.2528466845   0.995919142292769 -111.538932948935 0.995919142292771 -111.538932948935 0.0194394244988149 161.904694512843 
! Gamma         !               0.0237033847607591 47.3798264119134 0.0237033847604895 47.3798264120175 
! Port Impedance50               0                50               0                

1.58             0.0191941320226229 162.100920739707 0.995843309021071 -112.968579344145 0.995843309021073 -112.968579344145 0.019155624636815 160.5853708256   
! Gamma         !               0.0240060175364464 47.9872600858986 0.0240060175361929 47.9872600859996 
! Port Impedance50               0                50               0                

1.6              0.0189000189485916 160.963327209313 0.995767166907062 -114.398236616029 0.995767166907065 -114.398236616029 0.0188555840586399 159.276397768333 
! Gamma         !               0.0243087036857592 48.5946937597922 0.0243087036855215 48.5946937598901 
! Port Impedance50               0                50               0                

1.62             0.0185902278349134 159.841409962001 0.995690722961771 -115.827905825723 0.995690722961773 -115.827905825723 0.0185394348418062 157.978625905894 
! Gamma         !               0.0246114441417194 49.2021274335938 0.0246114441414971 49.2021274336885 
! Port Impedance50               0                50               0                

1.64             0.0182649345834349 158.736654692955 0.995613983370658 -117.257588046551 0.99561398337066 -117.257588046551 0.0182073203940612 156.692999116673 
! Gamma         !               0.0249142392272189 49.8095611073034 0.0249142392270117 49.8095611073949 
! Port Impedance50               0                50               0                

1.66             0.0179243302401508 157.650711962244 0.995536953453892 -118.687284360931 0.995536953453895 -118.687284360931 0.0178593953716041 155.420570215212 
! Gamma         !               0.0252170887487802 50.4169947809223 0.0252170887485876 50.4169947810103 
! Port Impedance50               0                50               0                

1.68             0.0175686215668235 156.585424555697 0.995459637631336 -120.116995856976 0.995459637631338 -120.116995856976 0.0174958256689851 154.162519667893 
! Gamma         !               0.0255199920793317 51.0244284544514 0.0255199920791533 51.0244284545362 
! Port Impedance50               0                50               0                

1.7              0.0171980318214909 155.54286012907  0.99538203939282 -121.54672362484 0.995382039392822 -121.54672362484 0.0171167885001656 152.920178124072 
! Gamma         !               0.025822948231167 51.6318621278933 0.0258229482310021 51.6318621279747 
! Port Impedance50               0                50               0                

1.72             0.016812801798891 154.525350344359 0.995304161274193 -122.976468752824 0.995304161274194 -122.976468752824 0.0167224725947919 151.695053684721 
! Gamma         !               0.0261259559201287 52.2392958012507 0.026125955919977 52.2392958013286 
! Port Impedance50               0                50               0                

1.74             0.0164131911948551 153.535538028359 0.995226004839581 -124.40623232328 0.995226004839582 -124.40623232328 0.0163130785396739 150.488865094298 
! Gamma         !               0.0264290136219554 52.8467294745261 0.0264290136218162 52.8467294746008 
! Port Impedance50               0                50               0                

1.76             0.0159994803759941 152.576434302166 0.995147570670239 -125.836015408348 0.99514757067024 -125.836015408348 0.0158888193035045 149.303582392647 
! Gamma         !               0.0267321196216257 53.4541631477224 0.0267321196214984 53.4541631477939 
! Port Impedance50               0                50               0                

1.78             0.0155719726589574 151.651488178987 0.995068858360282 -127.265819065573 0.995068858360284 -127.265819065573 0.0154499209937018 148.141477035565 
! Gamma         !               0.0270352720564538 54.0615968208439 0.0270352720563379 54.0615968209119 
! Port Impedance50               0                50               0                

1.8              0.015130997234232 150.764671851777 0.994989866519526 -128.695644333424 0.994989866519527 -128.695644333424 0.0149966239090608 147.005184132403 
! Gamma         !               0.02733846895361 54.6690304938928 0.0273384689535049 54.6690304939576 
! Port Impedance50               0                50               0                

1.82             0.0146769129109152 149.920585853952 0.994910592783598 -130.125492226774 0.9949105927836  -130.125492226774 0.0145291839723444 145.897780326044 
! Gamma         !               0.027641708262669 55.2764641668736 0.0276417082625741 55.2764641669352 
! Port Impedance50               0                50               0                

1.84             0.0142101129154507 149.1245895616   0.994831033831401 -131.555363732375 0.994831033831403 -131.555363732375 0.0140478746554667 144.822882054565 
! Gamma         !               0.0279449878837316 55.8838978397893 0.0279449878836463 55.8838978398476 
! Port Impedance50               0                50               0                

1.86             0.0137310310549593 148.382964234081 0.994751185409917 -132.985259804364 0.994751185409918 -132.985259804364 0.0135529895501881 143.784770634856 
! Gamma         !               0.0282483056916053 56.4913315126437 0.0282483056915291 56.491331512699  
! Port Impedance50               0                50               0                

1.88             0.0132401496636148 147.703118127246 0.994671042366301 -134.41518135985 0.994671042366302 -134.41518135985 0.0130448457948142 142.78855301947  
! Gamma         !               0.0285516595564827 57.0987651854406 0.0285516595564151 57.0987651854926 
! Port Impedance50               0                50               0                

1.9              0.0127380099014487 147.093846390204 0.994590598687115 -135.845129274621 0.994590598687115 -135.845129274621 0.0125237886508426 141.840370540616 
! Gamma         !               0.0288550473615094 57.7061988581828 0.0288550473614497 57.706198858232  
! Port Impedance50               0                50               0                

1.92             0.0122252251885265 146.565662789253 0.994509847544481 -137.275104379003 0.994509847544482 -137.275104379003 0.0119901976462601 140.94767299553  
! Gamma         !               0.0291584670175946 58.3136325308747 0.0291584670175423 58.3136325309209 
! Port Impedance50               0                50               0                

1.94             0.0117024988622724 146.131226221605 0.994428781348892 -138.705107453921 0.994428781348893 -138.705107453921 0.0114444948856448 140.119582871618 
! Gamma         !               0.0294619164757822 58.921066203519  0.0294619164757368 58.9210662035622 
! Port Impedance50               0                50               0                

1.96             0.0111706475852262 145.805893052616 0.994347391808321 -140.135139227187 0.994347391808322 -140.135139227187 0.0108871564061256 139.367385672668 
! Gamma         !               0.029765393737465 59.5284998761193 0.029765393737426 59.5284998761596 
! Port Impedance50               0                50               0                

1.98             0.0106306326694912 145.608437234016 0.994265669993229 -141.565200370054 0.99426566999323 -141.565200370054 0.0103187278902729 138.705199316959 
! Gamma         !               0.0300688968626976 60.1359335486785 0.0300688968626646 60.135933548716  
! Port Impedance50               0                50               0                

2                0.0100836024201682 145.561994692817 0.994183606407019 -142.995291494065 0.994183606407019 -142.995291494065 0.0097398467294437 138.150901931289 
! Gamma         !               0.0303724239768371 60.7433672211997 0.0303724239768094 60.7433672212346 
! Port Impedance50               0                50               0                

2.02             0.00953094997811347 145.695307133202 0.994101191061429 -144.425413148228 0.994101191061429 -144.425413148228 0.00915127353303809 137.727438892954 
! Gamma         !               0.0306759732757159 61.3508008936859 0.0306759732756932 61.3508008937181 
! Port Impedance50               0                50               0                

2.04             0.00897439317277545 146.044362591095 0.994018413556313 -145.855565816537 0.994018413556314 -145.855565816537 0.00855393799916744 137.464696518532 
! Gamma         !               0.0309795430295311 61.9582345661398 0.0309795430295129 61.9582345661694 
! Port Impedance50               0                50               0                

2.06             0.00841608586777298 146.654551987488 0.993935263163225 -147.285749915861 0.993935263163226 -147.285749915861 0.00794900714309644 137.402238099034 
! Gamma         !               0.0312831315856139 62.5656682385643 0.0312831315855999 62.5656682385915 
! Port Impedance50               0                50               0                

2.08             0.00785877454382698 147.583470171987 0.99385172891219 -148.71596579423 0.993851728912191 -148.71596579423 0.00733798922842172 137.593376379406 
! Gamma         !               0.0315867373702269 63.1731019109616 0.0315867373702166 63.1731019109864 
! Port Impedance50               0                50               0                

2.1              0.00730601968805991 148.904453369831 0.993767799681022 -150.14621372951 0.993767799681023 -150.14621372951 0.0067228962712568 138.111351759734 
! Gamma         !               0.0318903588895203 63.7805355833341 0.0318903588895134 63.7805355833567 
! Port Impedance50               0                50               0                

2.12             0.00676250865706263 150.710781510721 0.99368346428654 -151.576493928502 0.993683464286539 -151.576493928502 0.00610650535750771 139.058867726521 
! Gamma         !               0.0321939947297642 64.3879692556843 0.0321939947297604 64.3879692557045 
! Port Impedance50               0                50               0                

2.14             0.00623449278132853 153.119999918021 0.993598711576997 -153.006806526452 0.993598711576997 -153.006806526452 0.00549279125328311 140.58298072745  
! Gamma         !               0.0324976435569622 64.9954029280142 0.0324976435569611 64.9954029280322 
! Port Impedance50               0                50               0                

2.16             0.00573037864439599 156.276652555693 0.993513530525083 -154.437151586988 0.993513530525082 -154.437151586988 0.00488766275783767 142.898297736074 
! Gamma         !               0.0328013041159389 65.6028366003255 0.0328013041159401 65.6028366003417 
! Port Impedance50               0                50               0                

2.18             0.00526146993587281 160.349224653636 0.993427910320805 -155.867529102472 0.993427910320805 -155.867529102472 0.00430024260596234 146.32177825862  
! Gamma         !               0.0331049752289841 66.2102702726205 0.0331049752289874 66.2102702726345 
! Port Impedance50               0                50               0                

2.2              0.00484274326767779 165.512654427848 0.993341840463621 -157.297938994774 0.99334184046362 -157.297938994774 0.00374509392719062 151.318031277168 
! Gamma         !               0.0334086557941281 66.8177039449007 0.0334086557941333 66.8177039449128 
! Port Impedance50               0                50               0                

2.22             0.00449327109745121 171.902647962296 0.993255310853164 -158.728381116448 0.993255310853163 -158.728381116448 0.00324588859337901 158.529061446862 
! Gamma         !               0.0337123447831122 67.4251376171678 0.0337123447831188 67.4251376171782 
! Port Impedance50               0                50               0                

2.24             0.00423545493280397 179.530453208443 0.993168311877967 -160.158855252305 0.993168311877967 -160.158855252305 0.00284024201280986 168.674766948534 
! Gamma         !               0.0340160412391125 68.0325712894233 0.0340160412391204 68.0325712894318 
! Port Impedance50               0                50               0                

2.26             0.00409194167424462 -171.824240007013 0.993080834501599 -161.589361121365 0.993080834501598 -161.589361121365 0.0025812702112293 -177.951882274195 
! Gamma         !               0.034319744274268 68.6400049616684 0.0343197442742769 68.6400049616754 
! Port Impedance50               0                50               0                

2.28             0.00407997110294746 -162.663652354091 0.992992870345647 -163.019898379172 0.992992870345647 -163.019898379172 0.00252315515822722 -162.455340858796 
! Gamma         !               0.0346234530670574 69.2474386339048 0.0346234530670672 69.24743863391   
! Port Impedance50               0                50               0                

2.3              0.0042055182380909 -153.666859246431 0.992904411769082 -164.450466620444 0.99290441176908 -164.450466620444 0.00268671139190698 -147.441194581791 
! Gamma         !               0.0349271668595645 69.8548723061331 0.0349271668595749 69.8548723061369 
! Port Impedance50               0                50               0                

2.32             0.00446140573403264 -145.454146165756 0.992815451943489 -165.881065382047 0.992815451943489 -165.881065382047 0.00304291847669977 -135.132870219858 
! Gamma         !               0.0352308849546648 70.4623059783549 0.0352308849546758 70.4623059783572 
! Port Impedance50               0                50               0                

2.34             0.00483089633674752 -138.397183973377 0.992725984923811 -167.311694146251 0.99272598492381 -167.311694146251 0.00353946312741928 -126.056393020132 
! Gamma         !               0.0355346067131663 71.0697396505712 0.0355346067131776 71.0697396505721 
! Port Impedance50               0                50               0                

2.36             0.0052937027489211 -132.595088852309 0.992636005714189 -168.742352344251 0.992636005714189 -168.742352344251 0.00413048953922665 -119.678677568888 
! Gamma         !               0.0358383315509267 71.6771733227825 0.0358383315509383 71.6771733227821 
! Port Impedance50               0                50               0                

2.38             0.00583064365807193 -127.965061166405 0.992545510328652 -170.17303935992 0.99254551032865 -170.17303935992 0.00478480655516521 -115.277324128118 
! Gamma         !               0.036142058935973 72.2846069949899 0.0361420589359844 72.2846069949883 
! Port Impedance50               0                50               0                

2.4              0.00642575348774163 -124.344854481354 0.992454495846355 -171.603754533764 0.992454495846354 -171.603754533764 0.00548287985620337 -112.270115623156 
! Gamma         !               0.0364457883856388 72.8920406671941 0.0364457883856503 72.8920406671913 
! Port Impedance50               0                50               0                

2.42             0.0070665841111997 -121.55895529371 0.992362960461243 -173.034497167043 0.992362960461242 -173.034497167043 0.00621255244888572 -110.247967734867 
! Gamma         !               0.0367495194637407 73.4994743393957 0.036749519463752 73.4994743393919 
! Port Impedance50               0                50               0                

2.44             0.00774370962362781 -119.449097376064 0.992270903525951 -174.46526652603 0.99227090352595 -174.46526652603 0.00696606299117129 -108.933493128109 
! Gamma         !               0.037053251777802 74.1069080115956 0.0370532517778131 74.1069080115907 
! Port Impedance50               0                50               0                

2.46             0.0084500482194792 -117.883535055572 0.992178325589932 -175.89606184638 0.992178325589931 -175.89606184638 0.00773826652560112 -108.138357725086 
! Gamma         !               0.0373569849763402 74.714341683794  0.0373569849763509 74.7143416837881 
! Port Impedance50               0                50               0                

2.48             0.00918025342717568 -116.756621217428 0.992085228431777 -177.32688233756 0.992085228431778 -177.32688233756 0.00852560804587573 -107.732721205232 
! Gamma         !               0.0376607187462241 75.3217753559915 0.0376607187462343 75.3217753559848 
! Port Impedance50               0                50               0                

2.5              0.0099302389179425 -115.984996678108 0.991991615085775 -178.757727187331 0.991991615085761 -178.757727187331 0.00932552575687347 -107.625256980312 
! Gamma         !               0.0379644528101114 75.9292090281884 0.0379644528101212 75.9292090281809 
! Port Impedance50               0                50               0                

2.52             0.0106968289665847 -115.503205337837 0.991897489862935 179.811404433768 0.991897489862931 179.811404433768 0.0101360960863487 -107.750369189038 
! Gamma         !               0.0382681869239707 76.5366427003855 0.0382681869239799 76.5366427003771 
! Port Impedance50               0                50               0                

2.54             0.0114775076872968 -115.259776039343 0.991802858366359 178.38051336795  0.991802858366354 178.38051336795  0.0109558165464287 -108.059982088653 
! Gamma         !               0.0385719208746937 77.1440763725826 0.0385719208747023 77.1440763725735 
! Port Impedance50               0                50               0                

2.56             0.0122702405470507 -115.214036972099 0.99170772750157 176.949600465753 0.99170772750157 176.949600465753 0.01178346908945 -108.518190998799 
! Gamma         !               0.0388756544778017 77.7515100447804 0.0388756544778097 77.7515100447706 
! Port Impedance50               0                50               0                

2.58             0.0130733471742926 -115.333633147954 0.991612105481761 175.518666581695 0.991612105481761 175.518666581695 0.0126180317532539 -109.097713803815 
! Gamma         !               0.0391793875752477 78.3589437169789 0.039179387575255 78.3589437169685 
! Port Impedance50               0                50               0                

2.6              0.0138854101698867 -115.592628577148 0.991516001828385 174.087712570015 0.991516001828384 174.087712570016 0.0134586200767513 -109.777491303251 
! Gamma         !               0.0394831200333168 78.9663773891783 0.0394831200333233 78.9663773891675 
! Port Impedance50               0                50               0                

2.62             0.0147052091639625 -115.970066022628 0.991419427367424 172.656739280528 0.991419427367423 172.656739280528 0.0143044473556356 -110.541033404823 
! Gamma         !               0.0397868517406251 79.5738110613791 0.0397868517406309 79.5738110613678 
! Port Impedance50               0                50               0                

2.64             0.0155316726595713 -116.448874857946 0.991322394221716 171.225747554616 0.991322394221715 171.225747554616 0.0151547971188129 -111.375258502014 
! Gamma         !               0.0400905826062173 80.181244733581  0.0400905826062224 80.1812447335692 
! Port Impedance50               0                50               0                
