! Touchstone file exported from HFSS 2018.2.0
!        File:           C:/Users/10024/OneDrive - The University of Nottingham Ningbo China/Year 4/Final Year Project/HFSS project/Passive_Resonator_Antenna.aedt
!        Generated:      5:10:46 下午  3月 11, 2022
!        Design:         SMA_Thru
!        Project:        Passive_Resonator_Antenna
!        Setup:          Setup1
!        Solution:       Sweep
!
! Variables:
!        MW = 1.992mm
!        ThruL = 20mm
!        g = 0.2mm
!        subH = 0.8mm
!        subX = 20mm
!        subY = 30mm
!        tapW = 1.992mm
!
# GHZ S MA R 50.000000
! Modal data exported
! Port[1] = SMA_CONNECTOR1_1:1
! Port[2] = SMA_CONNECTOR2_1:1
1                0.0210170979244293 -167.319982003592 0.997489626664875 -79.031508107915 0.997489626664875 -79.031508107915 0.0210125862719165 -167.998177599117 
! Gamma         !               0.0151858380091447 30.3716836111861 0.0151858380091045 30.3716836112125 
! Port Impedance50               0                50               0                

1.02             0.0210890108132272 -168.819415654759 0.997416146423901 -80.6114098496404 0.997416146423901 -80.6114098496404 0.0210843436980047 -169.475444318195 
! Gamma         !               0.0154929975781964 30.9791172053264 0.0154929978282576 30.9791173518405 
! Port Impedance50               0                50               0                

1.04             0.0211425163697426 -170.315544673583 0.997342035339152 -82.1912896314728 0.997342035339152 -82.1912896314727 0.0211377067122187 -170.950104458245 
! Gamma         !               0.015799439713199 31.5865508160155 0.0157994401542508 31.5865510780171 
! Port Impedance50               0                50               0                

1.06             0.021177471954941 -171.808190920788 0.997267320930561 -83.7711486434608 0.997267320930561 -83.7711486434608 0.0211725328007533 -172.421941006108 
! Gamma         !               0.016105273631283 32.1939844406476 0.0161052742148222 32.1939847920086 
! Port Impedance50               0                50               0                

1.08             0.0211937468063371 -173.297160840692 0.997192029715286 -85.3509881169157 0.997192029715287 -85.3509881169156 0.0211886913213244 -173.890724362083 
! Gamma         !               0.0164105938433733 32.8014180769892 0.0164105945297458 32.8014184957607 
! Port Impedance50               0                50               0                

1.1              0.0211912221976641 -174.782243884098 0.997116187171223 -86.9308093214279 0.997116187171223 -86.9308093214278 0.0211860636617558 -175.356210495244 
! Gamma         !               0.0167154820530544 33.4088517231259 0.0167154828099882 33.4088521909412 
! Port Impedance50               0                50               0                

1.12             0.0211697915979544 -176.263210729428 0.997039817703294 -88.510613561791 0.997039817703294 -88.5106135617909 0.0211645433981842 -176.818138924566 
! Gamma         !               0.0170200088067137 34.0162853774177 0.0170200096080918 34.01628587898   
! Port Impedance50               0                50               0                

1.14             0.0211293608307873 -177.739811270801 0.996962944612642 -90.0904021748375 0.996962944612642 -90.0904021748374 0.0211240364536205 -178.276230490965 
! Gamma         !               0.0173242349295019 34.6237190384608 0.0173242357543361 34.6237195611019 
! Port Impedance50               0                50               0                

1.16             0.0210698482345936 -179.211772336277 0.996885590068795 -91.6701765261941 0.996885590068795 -91.670176526194 0.0210644612577532 -179.73018488038 
! Gamma         !               0.0176282127764237 35.2311527050562 0.0176282136079951 35.2311532383541 
! Port Impedance50               0                50               0                

1.18             0.0209911848250933 179.321204907164 0.996807775084891 -93.2499380069619 0.996807775084892 -93.2499380069618 0.0209857489090618 178.820322148252 
! Gamma         !               0.0179319873235114 35.8385863761784 0.0179319881486478 35.8385869116318 
! Port Impedance50               0                50               0                

1.2              0.0208933144611353 177.859447913319 0.996729519496054 -94.8296880303302 0.996729519496054 -94.8296880303301 0.0208878433405157 177.375641883921 
! Gamma         !               0.0182355971203817 36.4460200509561 0.0182355979288535 36.4460205816975 
! Port Impedance50               0                50               0                

1.22             0.0207761940155161 176.403316142301 0.996650841940968 -96.4094280281295 0.996650841940969 -96.4094280281293 0.0207707014904117 175.936156196667 
! Gamma         !               0.0185390751224247 37.0534537286468 0.0185390759064359 37.0534542492005 
! Port Impedance50               0                50               0                

1.24             0.0206397935526005 174.95320494492  0.99657175984676 -97.9891594473324 0.99657175984676 -97.9891594473322 0.0206342934802119 174.502281557805 
! Gamma         !               0.0188424494182811 37.6608874086216 0.0188424501720427 37.6608879146909 
! Port Impedance50               0                50               0                

1.26             0.0204840965150246 173.509550033463 0.996492289417208 -99.5688837465107 0.996492289417209 -99.5688837465105 0.0204786028016289 173.074473636539 
! Gamma         !               0.0191457438660918 38.2683210903478 0.0191457445854624 38.2683215786357 
! Port Impedance50               0                50               0                

1.28             0.0203090999221648 172.072832644286 0.996412445624373 -101.148602392255 0.996412445624373 -101.148602392255 0.0203036265156917 171.653232579952 
! Gamma         !               0.019448978650152 38.8757547733784 0.0194489793323385 38.8757552414268 
! Port Impedance50               0                50               0                

1.3              0.0201148145836963 170.643585519701 0.996332242203666 -102.728316855569 0.996332242203666 -102.728316855569 0.020109375467097 170.239109105367 
! Gamma         !               0.0197521707680302 39.4831884573369 0.0197521714113334 39.4831889033947 
! Port Impedance50               0                50               0                

1.32             0.0199012653322442 169.222399864095 0.996251691652428 -104.308028608239 0.996251691652429 -104.308028608239 0.0198958745178899 168.83271156143  
! Gamma         !               0.0200553344568692 40.09062214191   0.0200553350604738 40.0906225648141 
! Port Impedance50               0                50               0                

1.34             0.0196684912800577 167.809933463446 0.996170805232035 -105.887739119204 0.996170805232036 -105.887739119204 0.0196631628054272 167.434714148439 
! Gamma         !               0.0203584815664434 40.6980558268374 0.0203584821302397 40.6980562259144 
! Port Impedance50               0                50               0                

1.36             0.0194165461057682 166.406920200336 0.99608959297356 -107.467449850911 0.996089592973561 -107.467449850911 0.0194112940307104 166.045866531452 
! Gamma         !               0.020661621885558 41.3054895119042 0.0206616224099942 41.3054898868838 
! Port Impedance50               0                50               0                

1.38             0.0191454983787087 165.014181250857 0.996008063687022 -109.047162255692 0.996008063687023 -109.047162255691 0.0191403367846144 164.667005133959 
! Gamma         !               0.0209647634275321 41.912923196936  0.0209647639134911 41.9129235478762 
! Port Impedance50               0                50               0                

1.4              0.018855431930114 163.632638318597 0.995926224974218 -110.626877772149 0.995926224974219 -110.626877772149 0.0188503749213868 163.299066468832 
! Gamma         !               0.0212679126797802 42.5203568817919 0.0212679131284768 42.5203572090166 
! Port Impedance50               0                50               0                

1.42             0.0185464462828406 162.263329348946 0.995844083245155 -112.206597821577 0.995844083245157 -112.206597821576 0.0185415079911241 161.943102951411 
! Gamma         !               0.0215710748218718 43.1277905663588 0.0215710752347674 43.1277908704043 
! Port Impedance50               0                50               0                

1.44             0.0182186571542539 160.907427280076 0.995761643738071 -113.786323804411 0.995761643738073 -113.786323804411 0.0182138517459522 160.600301752899 
! Gamma         !               0.0218742539159077 43.7352242505484 0.0218742542946403 43.7352245321171 
! Port Impedance50               0                50               0                

1.46             0.0178721970508392 159.566262533523 0.995678910543015 -115.366057096739 0.995678910543017 -115.366057096738 0.0178675387385881 159.272007399064 
! Gamma         !               0.0221774530725739 44.3426579342942 0.0221774534189003 44.3426581942152 
! Port Impedance50               0                50               0                

1.48             0.0175072159781931 158.241350138519 0.995595886628991 -116.945799046853 0.995595886628993 -116.945799046853 0.0175027190370761 157.959749010757 
! Gamma         !               0.0224806745958277 44.9500916175457 0.0224806749115763 44.9500918567424 
! Port Impedance50               0                50               0                

1.5              0.0171238822968017 156.934422635558 0.995512573874607 -118.525550971889 0.995512573874609 -118.525550971889 0.0171195610862766 156.665273334566 
! Gamma         !               0.0227839201088041 45.5575253002683 0.0227839203958368 45.5575255197305 
! Port Impedance50               0                50               0                

1.52             0.0167223837629767 155.647470237897 0.995428973102188 -120.105314154526 0.99542897310219 -120.105314154526 0.0167182527557192 155.390585045604 
! Gamma         !               0.023087190663226 46.1649589824395 0.0230871909234076 46.1649591831992 
! Port Impedance50               0                50               0                

1.54             0.0163029288063682 154.382790175087 0.995345084115313 -121.685089839789 0.995345084115315 -121.685089839789 0.016299002625525 154.13799625058  
! Gamma         !               0.0233904868343198 46.7723926640463 0.0233904870694931 46.7723928471608 
! Port Impedance50               0                50               0                

1.56             0.0158657481117938 153.14304774358  0.995260905739695 -123.264879231944 0.995260905739696 -123.264879231943 0.0158620415785269 152.910187720969 
! Gamma         !               0.023693808803005 47.3798263450857 0.0236938090149722 47.3798265116183 
! Port Impedance50               0                50               0                

1.58             0.015411096595492 151.931352407921 0.995176435867329 -124.844683491502 0.995176435867331 -124.844683491501 0.0154076247892058 151.710285205706 
! Gamma         !               0.0239971564269113 47.9872600255606 0.023997156617419 47.9872601765703 
! Port Impedance50               0                50               0                

1.6              0.0149392558968846 150.75135342242  0.995091671503853 -126.424503732346 0.995091671503854 -126.424503732346 0.0149360342311797 150.541955300219 
! Gamma         !               0.0243005293015956 48.5946937054794 0.0243005294723236 48.5946938420089 
! Port Impedance50               0                50               0                

1.62             0.0144505375502847 149.607361009732 0.995006608818968 -128.004341018988 0.995006608818969 -128.004341018987 0.0144475818685721 149.409526916659 
! Gamma         !               0.0246039268131656 49.2021273848559 0.0246039269657192 49.2021275079229 
! Port Impedance50               0                50               0                

1.64             0.0139452870625453 148.50450133685  0.994921243199877 -129.584196363955 0.994921243199878 -129.584196363955 0.0139426137584341 148.318146605439 
! Gamma         !               0.0249073481833775 49.8095610637063 0.0249073483192819 49.809561174298  
! Port Impedance50               0                50               0                

1.66             0.01342388921102 147.448916667198 0.994835569307579 -131.164070725342 0.99483556930758 -131.164070725342 0.0134215153801901 147.273979117604 
! Gamma         !               0.0252107925081467 50.4169947420509 0.0252107926288438 50.4169948411173 
! Port Impedance50               0                50               0                

1.68             0.0128867750051577 146.448026593253 0.994749581135911 -132.743965004507 0.994749581135913 -132.743965004507 0.0128847186375871 146.284469123216 
! Gamma         !               0.0255142587903013 51.024428419911  0.025514258897148 51.024428508362  
! Port Impedance50               0                50               0                

1.7              0.0123344309457734 145.510872868146 0.994663272073203 -134.323880043943 0.994663272073204 -134.323880043942 0.0123327111701499 145.35868661303  
! Gamma         !               0.0258177459673084 51.631862097309  0.0258177460615758 51.6318621760129 
! Port Impedance50               0                50               0                

1.72             0.0117674115030648 144.648580157237 0.994576634966391 -135.90381662532 0.994576634966392 -135.903816625319 0.0117660488993266 144.507788305543 
! Gamma         !               0.0261212529346184 52.2392957742694 0.0261212530174934 52.2392958440484 
! Port Impedance50               0                50               0                

1.74             0.0111863561738008 143.874979770127 0.99448966218744 -137.483775467719 0.994489662187441 -137.483775467719 0.011185373175359 143.745642102499 
! Gamma         !               0.0264247785651958 52.8467294508165 0.0264247786377822 52.8467295124479 
! Port Impedance50               0                50               0                

1.76             0.0105920131633236 143.20746592706  0.99440234570191 -139.063757226054 0.994402345701911 -139.063757226054 0.0105914345783801 143.089684087366 
! Gamma         !               0.0267283217257371 53.4541631269747 0.0267283217890582 53.4541631811892 
! Port Impedance50               0                50               0                

1.78             0.00998527282823258 142.66818894884  0.994314677139488 -140.643762489695 0.994314677139488 -140.643762489695 0.00998512652034129 142.562112305421 
! Gamma         !               0.0270318812900157 54.0615968027684 0.0270318813450169 54.0615968502518 
! Port Impedance50               0                50               0                

1.8              0.00936721578686786 142.285744463962 0.994226647866306 -142.223791781297 0.994226647866308 -142.223791781297 0.00936753356944753 142.191576075559 
! Gamma         !               0.0273354561497437 54.6690304782217 0.0273354561972961 54.6690305196145 
! Port Impedance50               0                50               0                

1.82             0.00873918354642749 142.09760465508  0.99413824905886 -143.803845555853 0.994138249058861 -143.803845555853 0.00874000236471056 142.015606102443 
! Gamma         !               0.027639045223291 55.2764641533581 0.0276390452641946 55.2764641892567 
! Port Impedance50               0                50               0                

1.84             0.00810288449143012 142.153676699415 0.994049471779317 -145.383924199953 0.994049471779317 -145.383924199953 0.00810424798704706 142.084168915837 
! Gamma         !               0.027942647462561 55.8838978282003 0.0279426474975486 55.8838978591582 
! Port Impedance50               0                50               0                

1.86             0.00746055674935973 142.521595684309 0.993960307052023 -146.964028031282 0.993960307052024 -146.964028031282 0.00746251732015474 142.464949404081 
! Gamma         !               0.028246261858288 56.4913315027703 0.0282462618880287 56.4913315293001 
! Port Impedance50               0                50               0                

1.88             0.00681522478739645 143.294705562562 0.993870745940989 -148.544157298343 0.99387074594099 -148.544157298343 0.00681784624303388 143.251307377137 
! Gamma         !               0.0285498874439856 57.0987651770895 0.028549887469089 57.0987651996639 
! Port Impedance50               0                50               0                

1.9              0.00617111404504425 144.604181703135 0.993780779628137 -150.12431218042 0.993780779628137 -150.12431218042 0.0061744748412891 144.574345061383 
! Gamma         !               0.0288535232987502 57.7061988511772 0.0288535233197699 57.7061988702316 
! Port Impedance50               0                50               0                

1.92             0.0055343367598345 146.637307162106 0.993690399492087 -151.704492787774 0.993690399492087 -151.704492787774 0.00553853335208048 146.621061477048 
! Gamma         !               0.0291571685490937 58.3136325250534 0.0291571685665311 58.3136325409869 
! Port Impedance50               0                50               0                

1.94             0.00491404491947367 149.663858530419 0.993599597187259 -153.284699162092 0.993599597187259 -153.284699162092 0.00491919340701155 149.660473840522 
! Gamma         !               0.0294608223699639 58.9210661987359 0.0294608223842721 58.9210662119135 
! Port Impedance50               0                50               0                

1.96             0.00432436313755388 154.069035140303 0.99350836472305 -154.864931277172 0.993508364723051 -154.864931277172 0.00433059354735149 154.07600097358  
! Gamma         !               0.0297644839850839 59.5284998722416 0.0297644839966708 59.5284998829965 
! Port Impedance50               0                50               0                

1.98             0.00378746654823626 160.374659231626 0.993416694542863 -156.445189039863 0.993416694542862 -156.445189039863 0.00379489477065493 160.385691907932 
! Gamma         !               0.0300681526667286 60.1359335455865 0.0300681526759604 60.1359335542221 
! Port Impedance50               0                50               0                

2                0.00333762952506832 169.176395143717 0.993324579602727 -158.025472291248 0.993324579602727 -158.025472291248 0.00334627577773437 169.178456878058 
! Gamma         !               0.0303718277350412 60.743367218786  0.0303718277422461 60.7433672255765 
! Port Impedance50               0                50               0                

2.02             0.00302332662425448 -179.177828930752 0.993232013449311 -159.605780808081 0.993232013449311 -159.605780808081 0.00303295221798997 -179.205646891541 
! Gamma         !               0.0306755085569764 61.3508008918538 0.0306755085624473 61.3508008970477 
! Port Impedance50               0                50               0                

2.04             0.00289843276107649 -165.276917278822 0.993138990297032 -161.186114304466 0.993138990297032 -161.186114304466 0.00290838839556666 -165.354512875236 
! Gamma         !               0.0309791945449473 61.9582345648029 0.0309791945489445 61.9582345686242 
! Port Impedance50               0                50               0                

2.06             0.00299543897033309 -151.02250776772 0.993045505104075 -162.766472433794 0.993045505104074 -162.766472433794 0.00300482427021224 -151.15050020601 
! Gamma         !               0.0312828851552399 62.5656682376457 0.0312828851579945 62.5656682402956 
! Port Impedance50               0                50               0                

2.08             0.00330228082096693 -138.568952673213 0.992951553647032 -164.346854790913 0.992951553647031 -164.346854790913 0.00331041490559334 -138.726884415961 
! Gamma         !               0.0315865798862542 63.1731019103929 0.0315865798879704 63.1731019120514 
! Port Impedance50               0                50               0                

2.1              0.00377424811319866 -128.915394430161 0.992857132593971 -165.927260914557 0.992857132593971 -165.927260914557 0.00378089508471199 -129.08042609798 
! Gamma         !               0.0318902782766163 63.7805355830553 0.0318902782774735 63.7805355838828 
! Port Impedance50               0                50               0                

2.12             0.00436308090018703 -121.914307281571 0.99276223957564 -167.507690289997 0.992762239575639 -167.507690289997 0.00436830309900553 -122.072498604043 
! Gamma         !               0.0321939799032048 64.3879692556423 0.0321939799033606 64.3879692557813 
! Port Impedance50               0                50               0                

2.14             0.00503199217858304 -116.993151043193 0.992666873254619 -169.088142351949 0.99266687325462 -169.088142351949 0.00503595709130052 -117.13852977663 
! Gamma         !               0.0324976843791253 64.9954029281627 0.0324976843787171 64.9954029277395 
! Port Impedance50               0                50               0                

2.16             0.00575644546529051 -113.593679613606 0.992571033392167 -170.668616487694 0.992571033392166 -170.668616487694 0.00575932707312276 -113.724580561012 
! Gamma         !               0.032801391351662 65.6028366006244 0.0328013913508091 65.6028365997499 
! Port Impedance50               0                50               0                

2.18             0.00652064227152347 -111.28993342187 0.992474720912516 -172.249112040441 0.992474720912515 -172.249112040441 0.00652258954620925 -111.406561570706 
! Gamma         !               0.0331051005002293 66.2102702730343 0.0331051004990345 66.2102702718062 
! Port Impedance50               0                50               0                

2.2              0.00731430852156318 -109.780782866646 0.992377937964431 -173.829628312898 0.99237793796443 -173.829628312897 0.00731544138893327 -109.884026118368 
! Gamma         !               0.0334088115343451 66.8177039453996 0.0334088115328968 66.8177039439026 
! Port Impedance50               0                50               0                

2.22             0.00813056183188031 -108.857170175159 0.992280687979778 -175.410164571064 0.992280687979778 -175.410164571064 0.00813097532763968 -108.948089779115 
! Gamma         !               0.0337125241916416 67.4251376177262 0.0337125241900155 67.4251376160336 
! Port Impedance50               0                50               0                

2.24             0.00896461526342977 -108.373215313276 0.992182975728904 -176.990720048226 0.992182975728905 -176.990720048225 0.00896438497525356 -108.452845874147 
! Gamma         !               0.0340162382359265 68.0325712900191 0.034016238234186 68.0325712881946 
! Port Impedance50               0                50               0                

2.26             0.00981300268725682 -108.225644844546 0.99208480737262 -178.571293949152 0.992084807372613 -178.571293949153 0.00981218949324605 -108.294926419357 
! Gamma         !               0.0343199534553039 68.6400049622838 0.0343199534535025 68.6400049603811 
! Port Impedance50               0                50               0                

2.28             0.0106731111478517 -108.340041401941 0.991986190510572 179.848114545523 0.991986190510568 179.848114545522 0.0106717649058505 -108.399805428306 
! Gamma         !               0.034623669660365 69.2474386345243 0.034623669658547 69.2474386325892 
! Port Impedance50               0                50               0                

2.3              0.0115428926692398 -108.661790024443 0.991887134225836 178.267506274736 0.991887134225836 178.267506274736 0.0115410549789622 -108.712765699434 
! Gamma         !               0.0349273866824543 69.8548723067448 0.034927386680656 69.8548723048153 
! Port Impedance50               0                50               0                

2.32             0.0124206823112752 -109.150092660251 0.99178764912556 176.686882092259 0.991787649125559 176.686882092259 0.0124183885582503 -109.192919835463 
! Gamma         !               0.0352311043720131 70.4623059789485 0.0352311043702636 70.4623059770565 
! Port Impedance50               0                50               0                

2.34             0.0133050804582017 -109.773962213853 0.991687747377378 175.106242861804 0.991687747377378 175.106242861804 0.0133023613267347 -109.809205189163 
! Gamma         !               0.0355348225970066 71.0697396511389 0.0355348225953289 71.0697396493098 
! Port Impedance50               0                50               0                

2.36             0.014194874857884 -110.509499210519 0.991587442741586 173.525589451981 0.991587442741584 173.525589451981 0.0141917574576048 -110.537659347148 
! Gamma         !               0.0358385412414336 71.6771733233185 0.0358385412398454 71.6771733215729 
! Port Impedance50               0                50               0                

2.38             0.0150889878510695 -111.338009225821 0.991486750598795 171.944922731116 0.991486750598794 171.944922731116 0.0150854965629254 -111.359535776038 
! Gamma         !               0.0361422602039209 72.2846069954898 0.0361422602024353 72.2846069938434 
! Port Impedance50               0                50               0                

2.4              0.0159864399329194 -112.24467965734 0.991385687972977 170.364243561943 0.991385687972976 170.364243561943 0.0159825970504296 -112.259978800096 
! Gamma         !               0.0364459793964007 72.8920406676549 0.0364459793950268 72.8920406661195 
! Port Impedance50               0                50               0                

2.42             0.0168863241350415 -113.217634588292 0.991284273549743 168.783552796189 0.991284273549742 168.783552796189 0.0168821503549584 -113.227076871276 
! Gamma         !               0.0367496987428713 73.4994743398158 0.0367496987416147 73.4994743383997 
! Port Impedance50               0                50               0                

2.44             0.0177877877223868 -114.247249354476 0.991182527689727 167.202851269049 0.991182527689726 167.202851269049 0.0177833025235093 -114.251175795068 
! Gamma         !               0.0370534181782384 74.1069080119738 0.037053418177102 74.1069080106824 
! Port Impedance50               0                50               0                

2.46             0.0186900189284846 -115.32564630003 0.991080472436977 165.622139793583 0.991080472436976 165.622139793583 0.0186852408664721 -115.324373386846 
! Gamma         !               0.0373571376472348 74.7143416841306 0.037357137646219 74.7143416829665 
! Port Impedance50               0                50               0                

2.48             0.0195922372217121 -116.446318843429 0.990978131522223 164.041419155038 0.990978131522221 164.041419155038 0.0195871841601343 -116.440142647894 
! Gamma         !               0.0376608571034177 75.3217753562873 0.0376608571025209 75.3217753552507 
! Port Impedance50               0                50               0                

2.5              0.020493686086137 -117.603847698661 0.99087553036095 162.460690105104 0.990875530360949 162.460690105104 0.0204883753786079 -117.593047270206 
! Gamma         !               0.037964576508238 75.9292090284447 0.0379645765074571 75.9292090275342 
! Port Impedance50               0                50               0                

2.52             0.0213936276199718 -118.793684168968 0.990772696046181 160.879953356139 0.99077269604618 160.879953356139 0.0213880762542847 -118.77852435447 
! Gamma         !               0.0382682958301808 76.5366427006037 0.0382682958295114 76.5366426998163 
! Port Impedance50               0                50               0                

2.54             0.0222913384659793 -120.011982869344 0.990669657335906 159.299209575351 0.990669657335905 159.299209575351 0.0222855631784528 -119.992716669366 
! Gamma         !               0.0385720150439733 77.1440763727651 0.0385720150434101 77.1440763720964 
! Port Impedance50               0                50               0                

2.56             0.0231861067306136 -121.255471302623 0.990566444635099 157.718459378972 0.990566444635098 157.718459378972 0.0231801240967768 -121.232341854293 
! Gamma         !               0.0388757341298564 77.7515100449293 0.038875734129393 77.7515100443741 
! Port Impedance50               0                50               0                

2.58             0.024077229645849 -122.521347215058 0.990463089972272 156.13770332643  0.990463089972271 156.13770332643  0.024071056152151 -122.494589473002 
! Gamma         !               0.0391794530729169 78.3589437170969 0.0391794530725465 78.3589437166489 
! Port Impedance50               0                50               0                

2.6              0.0249640117951174 -123.807197106623 0.990359626970545 154.556941914542 0.990359626970543 154.556941914542 0.0249576638952468 -123.777039278975 
! Gamma         !               0.0394831718624772 78.966377389268  0.0394831718621928 78.9663773889206 
! Port Impedance50               0                50               0                

2.62             0.0258457637722611 -125.110931006183 0.990256090813201 152.976175571729 0.9902560908132  152.976175571728 0.0258392579308146 -125.077595791257 
! Gamma         !               0.0397868904915392 79.5738110614429 0.0397868904913334 79.5738110611888 
! Port Impedance50               0                50               0                

2.64             0.0267218011760262 -126.43072986476 0.990152518203717 151.395404652284 0.990152518203716 151.395404652283 0.0267151539016903 -126.394435524978 
! Gamma         !               0.0400906089562783 80.1812447336218 0.0400906089561437 80.1812447334535 