! Touchstone file exported from HFSS 2018.2.0
!        File:           C:/Users/10024/OneDrive - The University of Nottingham Ningbo China/Year 4/Final Year Project/HFSS project/Passive_Resonator_Antenna.aedt
!        Generated:      5:09:48 下午  3月 11, 2022
!        Design:         SMA_Thru
!        Project:        Passive_Resonator_Antenna
!        Setup:          Setup1
!        Solution:       Sweep
!
! Variables:
!        MW = 1.992mm
!        ThruL = 4mm
!        g = 0.2mm
!        subH = 0.8mm
!        subX = 20mm
!        subY = 14mm
!        tapW = 1.992mm
!
# GHZ S MA R 50.000000
! Modal data exported
! Port[1] = SMA_CONNECTOR1_1:1
! Port[2] = SMA_CONNECTOR2_1:1
1                0.0181174483117421 -138.825151062457 0.998957624803838 -48.8367941528711 0.998957624803838 -48.836794152871 0.0181179874711658 -138.789703698773 
! Gamma         !               0.0151858380091562 30.3716836111852 0.0151858380091471 30.371683611206  
! Port Impedance50               0                50               0                

1.02             0.0184211690371737 -139.741678216128 0.998927183447777 -49.8135414942818 0.998927183447777 -49.8135414942817 0.0184214643378169 -139.681903258717 
! Gamma         !               0.0155579197758112 30.979117146281  0.0155579197749666 30.9791171460298 
! Port Impedance50               0                50               0                

1.04             0.018721051976989 -140.660503341162 0.998896304411114 -50.7902937737164 0.998896304411115 -50.7902937737163 0.018721115650976 -140.576791358425 
! Gamma         !               0.0159220250614937 31.5865506999552 0.0159220250599462 31.5865506994665 
! Port Impedance50               0                50               0                

1.06             0.0190169920278912 -141.581522138258 0.998864993289791 -51.7670513965335 0.998864993289791 -51.7670513965334 0.0190168363742905 -141.47423744312 
! Gamma         !               0.0162789101501116 32.1939842700447 0.0162789101479749 32.1939842693498 
! Port Impedance50               0                50               0                

1.08             0.0193088835466832 -142.5046349763  0.998833255517021 -52.7438147738763 0.998833255517021 -52.7438147738762 0.0193085209720408 -142.374117375086 
! Gamma         !               0.0166292578908558 32.8014178546539 0.0166292578882285 32.8014178537803 
! Port Impedance50               0                50               0                

1.1              0.0195966204212501 -143.429746322431 0.998801096361225 -53.720584322086 0.998801096361226 -53.7205843220859 0.0195960634780881 -143.276312699605 
! Gamma         !               0.0169736856634156 33.4088514521155 0.0169736856603823 33.4088514510879 
! Port Impedance50               0                50               0                

1.12             0.0198800961440636 -144.35676423478 0.998768520924679 -54.6973604621241 0.99876852092468 -54.697360462124 0.0198793575675683 -144.180709990636 
! Gamma         !               0.0173127523595152 34.0162850609609 0.0173127523561494 34.0162850598015 
! Port Impedance50               0                50               0                

1.14             0.0201592038879874 -145.285599910223 0.998735534142844 -55.6741436190058 0.998735534142845 -55.6741436190057 0.0201582966310792 -145.087200266606 
! Gamma         !               0.0176469645174759 34.6237186798957 0.0176469645138412 34.6237186786236 
! Port Impedance50               0                50               0                

1.16             0.0204338365841758 -146.216167280656 0.998702140784373 -56.6509342212477 0.998702140784374 -56.6509342212476 0.0204327738511372 -145.995678467894 
! Gamma         !               0.017976781725475 35.2311523077737 0.0179767817216261 35.2311523064065 
! Port Impedance50               0                50               0                

1.18             0.0207038870018599 -147.148382652063 0.998668345451765 -57.6277327003309 0.998668345451766 -57.6277327003308 0.0207026822806605 -146.906042988757 
! Gamma         !               0.0183026213916804 35.8385859435793 0.0183026213876646 35.8385859421329 
! Port Impedance50               0                50               0                

1.2              0.020969247829791 -148.082164381429 0.998634152582653 -58.6045394901846 0.998634152582654 -58.6045394901845 0.0209679149232463 -147.818195257387 
! Gamma         !               0.0186248629648382 36.446019586414  0.0186248629606966 36.4460195849021 
! Port Impedance50               0                50               0                

1.22             0.0212298117591613 -149.017432587186 0.998599566451676 -59.5813550266895 0.998599566451677 -59.5813550266894 0.0212283648150333 -148.732039358561 
! Gamma         !               0.0189438516766685 37.0534532354774 0.0189438516724363 37.0534532339126 
! Port Impedance50               0                50               0                

1.24             0.0214854715677655 -149.954108889379 0.998564591172935 -60.5581797472066 0.998564591172936 -60.5581797472065 0.0214839251079025 -149.647481694071 
! Gamma         !               0.0192599018671389 37.6608868900581 0.0192599018628467 37.6608868884513 
! Port Impedance50               0                50               0                

1.26             0.0217361202051955 -150.892116176251 0.99852923070297 -61.5350140901301 0.998529230702971 -61.53501409013  0.0217344891538067 -150.564430676681 
! Gamma         !               0.019573299945045 38.2683205495221 0.0195732999407191 38.2683205478833 
! Port Impedance50               0                50               0                

1.28             0.0219816508788803 -151.831378394273 0.99849348884424 -62.5118584944698 0.998493488844242 -62.5118584944697 0.0219799505900058 -151.48279645389 
! Gamma         !               0.0198843070290077 38.8757542133038 0.0198843070246707 38.8757542116415 
! Port Impedance50               0                50               0                

1.3              0.0222219571407296 -152.771820359077 0.998457369249067 -63.4887133994619 0.998457369249067 -63.4887133994618 0.0222202034249963 -152.402490658172 
! Gamma         !               0.0201931613077987 39.4831878808986 0.02019316130347 39.483187879221  
! Port Impedance50               0                50               0                

1.32             0.0224569329742034 -153.713367584923 0.998420875423982 -64.4655792442117 0.998420875423984 -64.4655792442116 0.0224551421249028 -153.32342618081 
! Gamma         !               0.0205000801536493 40.0906215518549 0.0205000801493455 40.0906215501688 
! Port Impedance50               0                50               0                

1.34             0.0226864728815702 -154.655946130703 0.998384010734477 -65.4424564673696 0.998384010734478 -65.4424564673695 0.0226846617001338 -154.245516966668 
! Gamma         !               0.0208052620177032 40.6980552257691 0.0208052620134384 40.6980552240808 
! Port Impedance50               0                50               0                

1.36             0.0229104719711805 -155.599482460615 0.998346778410053 -66.4193455068404 0.998346778410055 -66.4193455068404 0.0229086577920887 -155.16867782763 
! Gamma         !               0.0211088881329518 41.30548890228   0.021108888128738 41.3054889005949 
! Port Impedance50               0                50               0                

1.38             0.0231288260445227 -156.543903317862 0.998309181549582 -67.3962467995288 0.998309181549584 -67.3962467995287 0.0231270267597006 -156.092824272585 
! Gamma         !               0.0214111240467089 41.912922581063  0.0214111240425564 41.9129225793857 
! Port Impedance50               0                50               0                

1.4              0.0233414316828775 -157.489135609917 0.998271223126887 -68.3731607811204 0.998271223126889 -68.3731607811204 0.0233396657656159 -157.017872352113 
! Gamma         !               0.021712121001867 42.5203562618282 0.0217121209977841 42.5203562601633 
! Port Impedance50               0                50               0                

1.42             0.0235481863333667 -158.435106303973 0.998232905996527 -69.3500878859008 0.99823290599653 -69.3500878859008 0.0235464728618113 -157.943738516172 
! Gamma         !               0.0220120171837604 43.1277899443149 0.0220120171797543 43.127789942666  
! Port Impedance50               0                50               0                

1.44             0.0237489883942001 -159.381742331398 0.998194232899708 -70.327028546611 0.998194232899711 -70.3270285466109 0.0237473470744462 -158.870339483253 
! Gamma         !               0.0223109388473715 43.7352236282887 0.022310938843448 43.7352236266593 
! Port Impedance50               0                50               0                

1.46             0.0239437372989302 -160.328970500048 0.998155206470292 -71.3039831943413 0.998155206470294 -71.3039831943412 0.0239421884877646 -159.79759211963 
! Gamma         !               0.0226090013378159 44.3426573135411 0.0226090013339795 44.3426573119338 
! Port Impedance50               0                50               0                

1.48             0.0241323335995335 -161.27671741344 0.998115829240839 -72.2809522584638 0.998115829240841 -72.2809522584637 0.0241308983268544 -160.725413327396 
! Gamma         !               0.0229063100154823 44.9500909998831 0.0229063100117372 44.9500909983004 
! Port Impedance50               0                50               0                

1.5              0.0243146790481241 -162.224909395826 0.998076103648644 -73.2579361666015 0.998076103648646 -73.2579361666014 0.0243133790390821 -161.653719940156 
! Gamma         !               0.0232029610958483 45.5575246871455 0.023202961092197 45.5575246855896 
! Port Impedance50               0                50               0                

1.52             0.0244906766771292 -163.173472422309 0.998036032041704 -74.2349353446357 0.998036032041707 -74.2349353446357 0.0244895343740277 -162.582428625254 
! Gamma         !               0.0234990424128146 46.1649583751769 0.0234990424092595 46.1649583736494 
! Port Impedance50               0                50               0                

1.54             0.0246602308777577 -164.122332053158 0.997995616684585 -75.2119502167508 0.997995616684587 -75.2119502167508 0.0246592694617566 -163.511455791555 
! Gamma         !               0.0237946341133843 46.772392063841  0.0237946341099268 46.7723920623438 
! Port Impedance50               0                50               0                

1.56             0.0248232474765967 -165.071413371592 0.997954859764107 -76.1889812055144 0.99795485976411 -76.1889812055143 0.0248224908892533 -164.440717501833 
! Gamma         !               0.0240898092906063 47.3798257530157 0.0240898092872474 47.37982575155   
! Port Impedance50               0                50               0                

1.58             0.0249796338101675 -166.020640924274 0.997913763394846 -77.1660287319935 0.997913763394848 -77.1660287319934 0.024979106774867 -165.370129388875 
! Gamma         !               0.0243846345609336 47.9872594425916 0.0243846345576739 47.9872594411583 
! Port Impedance50               0                50               0                

1.6              0.0251292987973069 -166.969938663846 0.997872329624359 -78.1430932159047 0.997872329624361 -78.1430932159046 0.0251290268406288 -166.299606574461 
! Gamma         !               0.0246791705914525 48.5946931324709 0.0246791705882921 48.5946931310709 
! Port Impedance50               0                50               0                

1.62             0.0252721530092122 -167.919229892823 0.997830560438118 -79.120175075797 0.99783056043812 -79.120175075797 0.0252721624822845 -167.229063590428 
! Gamma         !               0.0249734725818456 49.2021268225656 0.0249734725787842 49.2021268211996 
! Port Impedance50               0                50               0                

1.64             0.0254081087370397 -168.868437208229 0.997788457764093 -80.0972747292663 0.997788457764096 -80.0972747292663 0.0254084268369301 -168.158414301041 
! Gamma         !               0.0252675907054189 49.8095605127971 0.0252675907024557 49.8095605114657 
! Port Impedance50               0                50               0                

1.66             0.0255370800568978 -169.817482446333 0.997746023476955 -81.0743925931992 0.997746023476958 -81.0743925931991 0.0255377348481138 -169.087571825912 
! Gamma         !               0.025561570513061 50.4169942030958 0.0255615705101953 50.4169942017993 
! Port Impedance50               0                50               0                

1.68             0.0256589828921522 -170.766286626869 0.997703259401845 -82.0515290840442 0.997703259401847 -82.0515290840442 0.025660003328301 -170.016448462763 
! Gamma         !               0.025855453303594 51.024427893399  0.0258554533008246 51.0244278921377 
! Port Impedance50               0                50               0                

1.7              0.0257737350729173 -171.714769896155 0.997660167317682 -83.0286846181093 0.997660167317684 -83.0286846181092 0.0257751510186021 -170.944955609289 
! Gamma         !               0.0261492764636103 51.6318615836516 0.0261492764609359 51.6318615824256 
! Port Impedance50               0                50               0                

1.72             0.0258812563926267 -172.662851468479 0.99761674895998 -84.0058596118819 0.997616748959982 -84.0058596118819 0.0258830986456571 -171.873003683421 
! Gamma         !               0.0264430737795748 52.2392952738042 0.026443073776994 52.2392952726134 
! Port Impedance50               0                50               0                

1.74             0.0259814686616289 -173.610449565167 0.997573006023125 -84.9830544823709 0.997573006023128 -84.9830544823709 0.0259837689756194 -172.80050204127 
! Gamma         !               0.0267368757246835 52.8467289638136 0.0267368757221946 52.8467289626579 
! Port Impedance50               0                50               0                

1.76             0.0260742957577045 -174.557481350691 0.997528940162104 -85.9602696474663 0.997528940162107 -85.9602696474662 0.026077086865153 -173.727358892031 
! Gamma         !               0.027030709722723 53.4541626536406 0.0270307097203242 53.4541626525197 
! Port Impedance50               0                50               0                

1.78             0.0261596636734428 -175.503862865214 0.997484552993649 -86.937505526315 0.997484552993653 -86.9375055263149 0.0261629793093878 -174.653481209119 
! Gamma         !               0.0273246003909474 54.0615963432522 0.0273246003886369 54.061596342166  
! Port Impedance50               0                50               0                

1.8              0.0262375005604486 -176.449508952906 0.997439846096767 -87.9147625397104 0.99743984609677 -87.9147625397103 0.0262413754867989 -175.578774636779 
! Gamma         !               0.0276185697637963 54.6690300326186 0.0276185697615721 54.6690300315668 
! Port Impedance50               0                50               0                

1.82             0.026307736770307 -177.394333185362 0.997394821012665 -88.8920411104914 0.997394821012668 -88.8920411104914 0.0263122068009664 -176.503143391402 
! Gamma         !               0.0279126374990932 55.2764637217141 0.0279126374969534 55.2764637206964 
! Port Impedance50               0                50               0                

1.84             0.0263703048923025 -178.338247779434 0.99734947924402 -89.8693416639498 0.997349479244023 -89.8693416639497 0.0263754069191999 -177.426490156743 
! Gamma         !               0.0282068210682148 55.8838974105164 0.0282068210661575 55.8838974095321 
! Port Impedance50               0                50               0                

1.86             0.0264251397878611 -179.281163508735 0.997303822253612 -90.8466646282413 0.997303822253615 -90.8466646282412 0.0264309118080271 -178.348715972198 
! Gamma         !               0.0285011359315708 56.4913310990068 0.0285011359295935 56.4913310980556 
! Port Impedance50               0                50               0                

1.88             0.0264721786217298 179.777010391949 0.997257851462293 -91.8240104347992 0.997257851462296 -91.8240104347992 0.0264786597655443 -179.269720113265 
! Gamma         !               0.0287955957006165 57.0987647871687 0.0287955956987174 57.0987647862502 
! Port Impedance50               0                50               0                

1.9              0.0265113608898838 178.836366330168 0.997211568246297 -92.801379518746 0.9972115682463  -92.8013795187459 0.0265185914506633 179.810600036754 
! Gamma         !               0.0290902122875027 57.7061984749888 0.0290902122856797 57.706198474102  
! Port Impedance50               0                50               0                

1.92             0.0265426284442014 177.896998468091 0.997164973933896 -93.7787723193002 0.997164973933899 -93.7787723193001 0.0265506499092816 178.892349124789 
! Gamma         !               0.029384996043366 58.3136321624559 0.0293849960416169 58.3136321616005 
! Port Impedance50               0                50               0                

1.94             0.0265659255139412 176.959002844507 0.997118069801384 -94.7561892801766 0.997118069801387 -94.7561892801765 0.0265747805974347 177.975633976841 
! Gamma         !               0.0296799558861746 58.9210658495604 0.0296799558844972 58.9210658487359 
! Port Impedance50               0                50               0                

1.96             0.0265811987240742 176.022477507544 0.997070857068433 -95.7336308499752 0.997070857068436 -95.7336308499752 0.0265909314014838 177.060563758751 
! Gamma         !               0.0299750994189594 59.5284995362956 0.0299750994173517 59.5284995355012 
! Port Impedance50               0                50               0                

1.98             0.0265883971105309 175.087522659166 0.997023336892791 -96.7110974825573 0.997023336892794 -96.7110974825573 0.0265990526554503 176.147250150123 
! Gamma         !               0.0302704330391904 60.135933222656  0.0302704330376503 60.1359332218909 
! Port Impedance50               0                50               0                

2                0.0265874721324591 174.154240812641 0.996975510364371 -97.688589637405 0.996975510364374 -97.6885896374049 0.026599097155558 175.235807532711 
! Gamma         !               0.0305659620399881 60.7433669086374 0.0305659620385135 60.743366907901  
! Port Impedance50               0                50               0                

2.02             0.0265783776815834 173.222736964213 0.996927378498729 -98.6661077799608 0.996927378498732 -98.6661077799607 0.0265910201721342 174.326353194704 
! Gamma         !               0.0308616907038026 61.3508005942376 0.0308616907023913 61.3508005935294 
! Port Impedance50               0                50               0                

2.04             0.0265610700887739 172.293118780386 0.996878942229957 -99.6436523819469 0.996878942229959 -99.6436523819468 0.0265747794589802 173.419007552445 
! Gamma         !               0.0311576223891385 61.9582342794553 0.0311576223877886 61.9582342787744 
! Port Impedance50               0                50               0                

2.06             0.0265355081279597 171.365496802299 0.996830202403027 -100.621223921658 0.99683020240303 -100.621223921658 0.0265503352603674 172.513894391296 
! Gamma         !               0.0314537596108534 62.5656679642907 0.0314537596095628 62.5656679636364 
! Port Impedance50               0                50               0                

2.08             0.0265016530175375 170.439984668846 0.9967811597656  -101.598822884228 0.996781159765602 -101.598822884228 0.0265176503158394 171.611141127475 
! Gamma         !               0.0317501041145154 63.1731016487443 0.0317501041132822 63.173101648116  
! Port Impedance50               0                50               0                

2.1              0.0264594684194243 169.516699360356 0.99673181495934 -102.576449761866 0.996731814959344 -102.576449761866 0.02647668986299 170.710879092897 
! Gamma         !               0.0320466569452639 63.7805353328185 0.0320466569440861 63.7805353322156 
! Port Impedance50               0                50               0                

2.12             0.0264089204359489 168.595761464801 0.996682168510766 -103.554105054062 0.996682168510768 -103.554105054062 0.0264274216384462 169.813243845249 
! Gamma         !               0.032343418511582 64.3879690165158 0.0323434185104577 64.3879690159374 
! Port Impedance50               0                50               0                

2.14             0.0263499776047714 167.677295468736 0.996632220821673 -104.531789267759 0.996632220821676 -104.531789267758 0.0263698158772728 168.918375505741 
! Gamma         !               0.0326403886443541 64.9954026998399 0.0326403886432814 64.9954026992853 
! Port Impedance50               0                50               0                

2.16             0.0262826108920567 166.761430075387 0.996581972159183 -105.509502917481 0.996581972159186 -105.509502917481 0.02630384531106 168.026419127231 
! Gamma         !               0.032937566651556 65.6028363827947 0.0329375666505331 65.6028363822634 
! Port Impedance50               0                50               0                

2.18             0.0262067936841293 165.848298552567 0.996531422645433 -106.487246525437 0.996531422645435 -106.487246525437 0.0262294851649637 167.137525095721 
! Gamma         !               0.0332349513688931 66.2102700653853 0.0332349513679183 66.2102700648763 
! Port Impedance50               0                50               0                

2.2              0.0261225017778872 164.938039113392 0.996480572246976 -107.465020621575 0.996480572246978 -107.465020621575 0.026146713154016 166.251849568528 
! Gamma         !               0.0335325412066807 66.8177037476165 0.0335325412057521 66.8177037471293 
! Port Impedance50               0                50               0                

2.22             0.0260297133702342 164.030795333108 0.99642942076393 -108.442825743594 0.996429420763932 -108.442825743594 0.0260555094790147 165.369554952797 
! Gamma         !               0.033830334193234 67.4251374294942 0.0338303341923501 67.425137429028  
! Port Impedance50               0                50               0                

2.24             0.0259284090468576 163.126716605696 0.996377967818919 -109.420662436923 0.996377967818922 -109.420662436923 0.0259558568223703 164.490810428461 
! Gamma         !               0.0341283280150211 68.0325711110247 0.0341283280141801 68.0325711105789 
! Port Impedance50               0                50               0                

2.26             0.0258185717706758 162.225958644392 0.996326212845856 -110.398531254645 0.996326212845859 -110.398531254645 0.0258477403442978 163.615792520172 
! Gamma         !               0.0344265200538041 68.640004792214  0.0344265200530043 68.640004791788  
! Port Impedance50               0                50               0                

2.28             0.0257001868703166 161.328684030696 0.996274155078623 -111.376432757387 0.996274155078624 -111.376432757387 0.0257311476797715 162.744685723315 
! Gamma         !               0.0347249074209843 69.2474384730692 0.0347249074202243 69.2474384726622 
! Port Impedance50               0                50               0                

2.3              0.0255732420290239 160.435062817019 0.996221793539696 -112.354367513155 0.996221793539698 -112.354367513155 0.0256060689367301 161.877683189763 
! Gamma         !               0.0350234869893484 69.8548721535971 0.0350234869886265 69.8548721532085 
! Port Impedance50               0                50               0                

2.32             0.02543772727441 159.545273188769 0.996169127028774 -113.332336097131 0.996169127028776 -113.332336097131 0.025472496696009 161.014987479756 
! Gamma         !               0.0353222554223954 70.4623058338046 0.0353222554217103 70.4623058334338 
! Port Impedance50               0                50               0                

2.34             0.0252936349695322 158.659502192359 0.996116154111446 -114.310339091423 0.996116154111448 -114.310339091423 0.025330426013598 160.156811387049 
! Gamma         !               0.0356212092014158 71.0697395136996 0.0356212092007658 71.0697395133461 
! Port Impedance50               0                50               0                

2.36             0.0251409598057874 157.777946536456 0.99606287310797 -115.288377084761 0.996062873107973 -115.288377084761 0.0251798544257955 159.303378845349 
! Gamma         !               0.0359203446504779 71.6771731932889 0.0359203446498619 71.677173192952  
! Port Impedance50               0                50               0                

2.38             0.0249796987981869 156.900813474773 0.996009282082205 -116.26645067216 0.996009282082207 -116.26645067216 0.0250207819579583 158.454925925116 
! Gamma         !               0.0362196579594677 72.2846068725806 0.0362196579588841 72.2846068722596 
! Port Impedance50               0                50               0                

2.4              0.0248098512836172 156.028321779715 0.995955378830744 -117.244560454527 0.995955378830746 -117.244560454527 0.0248532111375731 157.611701930928 
! Gamma         !               0.0365191452053153 72.8920405515821 0.0365191452047628 72.8920405512766 
! Port Impedance50               0                50               0                

2.42             0.0246314189227501 155.160702817522 0.995901160872315 -118.222707038227 0.995901160872317 -118.222707038227 0.0246771470124645 156.773970610973 
! Gamma         !               0.036818802371536 73.4994742303012 0.0368188023710134 73.4994742300106 
! Port Impedance50               0                50               0                

2.44             0.0244444057063525 154.298201736929 0.99584662543748 -119.200891034606 0.995846625437482 -119.200891034606 0.0244925971750576 155.94201149173  
! Gamma         !               0.0371186253661997 74.1069079087456 0.0371186253657056 74.1069079084692 
! Port Impedance50               0                50               0                

2.46             0.0242488179667892 153.441078785048 0.995791769458699 -120.179113059466 0.995791769458701 -120.179113059466 0.0242995717936805 155.116121352727 
! Gamma         !               0.0374186100384382 74.7143415869231 0.0374186100379715 74.7143415866603 
! Port Impedance50               0                50               0                

2.48             0.0240446643956513 152.589610766119 0.995736589560796 -121.157373732504 0.995736589560799 -121.157373732504 0.0240980836520504 154.296615858237 
! Gamma         !               0.0377187521935919 75.3217752648412 0.0377187521931514 75.3217752645917 
! Port Impedance50               0                50               0                

2.5              0.023831956068507 151.744092660967 0.995681082051882 -122.135673676705 0.995681082051884 -122.135673676705 0.0238881481981844 153.483831365145 
! Gamma         !               0.0380190476070873 75.9292089425076 0.038019047606672 75.9292089422708 
! Port Impedance50               0                50               0                

2.52             0.0236107064779076 150.904839427654 0.995625242914766 -123.114013517697 0.995625242914768 -123.114013517697 0.023669783604154 152.678126929017 
! Gamma         !               0.0383194920371361 76.5366426199303 0.0383194920367449 76.5366426197055 
! Port Impedance50               0                50               0                

2.54             0.0233809315759404 150.072188006785 0.995569067798919 -124.092393883068 0.995569067798921 -124.092393883068 0.0234430108382794 151.879886533419 
! Gamma         !               0.0386200812363338 77.1440762971164 0.0386200812359655 77.1440762969032 
! Port Impedance50               0                50               0                

2.56             0.0231426498277577 149.246499558517 0.995512552013008 -125.07081540165 0.995512552013009 -125.07081540165 0.0232078537515608 151.08952157139  
! Gamma         !               0.0389208109622361 77.7515099740736 0.0389208109618897 77.7515099738717 
! Port Impedance50               0                50               0                

2.58             0.0228958822777275 148.428161962404 0.99545569051805 -126.049278702763 0.995455690518052 -126.049278702763 0.0229643391804132 150.307473612117 
! Gamma         !               0.0392216769869834 78.3589436508095 0.0392216769866579 78.3589436506184 
! Port Impedance50               0                50               0                

2.6              0.0226406526300735 147.617592616153 0.995398477921237 -127.027784415432 0.995398477921238 -127.027784415432 0.0227124970680311 149.534217490974 
! Gamma         !               0.0395226751060388 78.9663773273312 0.0395226751057333 78.9663773271504 
! Port Impedance50               0                50               0                

2.62             0.0223769873461467 146.815241574992 0.995340908470421 -128.00633316757 0.995340908470422 -128.00633316757 0.0224523606070812 148.770264766897 
! Gamma         !               0.0398238011461018 79.5738110036462 0.0398238011458154 79.5738110034752 
! Port Impedance50               0                50               0                

2.64             0.0221049157607955 146.021595080217 0.995282976049351 -128.984925585141 0.995282976049351 -128.984925585141 0.0221839664068102 148.016167597987 
! Gamma         !               0.0401250509722556 80.1812446797612 0.0401250509719874 80.1812446795996 
! Port Impedance50               0                50               0                
