! Touchstone file exported from HFSS 2018.2.0
!        File:           C:/Users/10024/OneDrive - The University of Nottingham Ningbo China/Year 4/Final Year Project/HFSS project/Passive_Resonator_Antenna.aedt
!        Generated:      10:18:29 下午  3月 11, 2022
!        Design:         SMA_Reflect_Open
!        Project:        Passive_Resonator_Antenna
!        Setup:          Setup1
!        Solution:       Sweep
!
! Variables:
!        MW = 1.992mm
!        ThruL = 15mm
!        g = 0.2mm
!        subH = 0.8mm
!        subX = 20mm
!        subY = 25mm
!
# GHZ S MA R 50.000000
! Modal data exported
! Port[1] = SMA_CONNECTOR1_1:1
! Port[2] = SMA_CONNECTOR2_1:1
1                0.998817034787857 -63.5544210584141 0.000488119884248773 33.7092142653522 0.000488119884248774 33.7092142653522 0.998856433296596 -62.0606565584986 
! Gamma         !               0.0151858380091312 30.371683611176  0.0151858380091697 30.3716836111734 
! Port Impedance50               0                50               0                

1.02             0.998797047538992 -64.8164471003831 0.00049967669270434 32.2405069181363 0.000499676692704338 32.2405069181366 0.998837290281903 -63.2931541812838 
! Gamma         !               0.0155579197754921 30.9791171462017 0.015557919774303 30.9791171457382 
! Port Impedance50               0                50               0                

1.04             0.998776829261807 -66.0779647400309 0.00051135290555559 30.7753340187483 0.000511352905555591 30.7753340187484 0.998817934773464 -64.5251614880688 
! Gamma         !               0.0159220250609224 31.5865506998146 0.0159220250587146 31.5865506989499 
! Port Impedance50               0                50               0                

1.06             0.998756382544288 -67.3389668898326 0.000523150650847437 29.313340942274  0.000523150650847437 29.3133409422741 0.998798369775198 -65.7566715034926 
! Gamma         !               0.0162789101493244 32.1939842698508 0.0162789101462767 32.1939842686386 
! Port Impedance50               0                50               0                

1.08             0.998735709605054 -68.5994466225196 0.000535072067213472 27.8541959595236 0.000535072067213472 27.8541959595236 0.998778597946707 -66.987677398953 
! Gamma         !               0.0166292578898845 32.801417854414  0.0166292578861503 32.8014178529015 
! Port Impedance50               0                50               0                

1.1              0.998714812291898 -69.8593971734642 0.000547119302576632 26.3975882479354 0.000547119302576632 26.3975882479354 0.998758621601705 -68.2181724947925 
! Gamma         !               0.0169736856622876 33.4088514518363 0.0169736856579982 33.4088514500654 
! Port Impedance50               0                50               0                

1.12             0.998693692080985 -71.1188119430291 0.000559294512952232 24.943226108683  0.000559294512952232 24.9432261086831 0.99873844270708 -69.4481502624506 
! Gamma         !               0.0173127523582549 34.0162850606484 0.0173127523535228 34.0162850586564 
! Port Impedance50               0                50               0                

1.14             0.998672350076661 -72.3776844988801 0.000571599861340133 23.4908353657318 0.00057159986134013 23.4908353657319 0.99871806288252 -70.6776043265836 
! Gamma         !               0.0176469645161048 34.6237186795543 0.0176469645110263 34.6237186773753 
! Port Impedance50               0                50               0                

1.16             0.998650787011815 -73.6360085782616 0.000584037516694454 22.0401579257914 0.000584037516694453 22.0401579257914 0.998697483400686 -71.9065284671507 
! Gamma         !               0.0179767817240116 35.2311523074081 0.0179767817186694 35.2311523050717 
! Port Impedance50               0                50               0                

1.18             0.998629003248776 -74.8937780902348 0.00059660965296089 20.5909504808332 0.000596609652960891 20.5909504808331 0.998676705187866 -73.1349166214662 
! Gamma         !               0.018302621390141 35.8385859431941 0.0183026213846055 35.8385859407269 
! Port Impedance50               0                50               0                

1.2              0.998606998780678 -76.1509871178791 0.000609318448172948 19.1429833371875 0.000609318448172947 19.1429833371875 0.998655728825098 -74.3627628862178 
! Gamma         !               0.0186248629632373 36.4460195860125 0.0186248629575688 36.4460195834383 
! Port Impedance50               0                50               0                

1.22             0.998584773233263 -77.4076299204544 0.000622166083599511 17.6960393572424 0.000622166083599509 17.6960393572423 0.998634554549692 -75.5900615194508 
! Gamma         !               0.0189438516750187 37.0534532350629 0.0189438516692685 37.053453232403  
! Port Impedance50               0                50               0                

1.24             0.99856232586708 -78.6637009355262 0.000635154742937259 16.2499130014986 0.000635154742937259 16.2499130014985 0.998613182257141 -76.8168069425176 
! Gamma         !               0.0192599018654514 37.6608868896332 0.0192599018596632 37.6608868869063 
! Port Impedance50               0                50               0                

1.26             0.998539655580049 -79.919194781052 0.000648286611542139 14.8044094602332 0.000648286611542138 14.8044094602331 0.998591611503367 -78.0429937419925 
! Gamma         !               0.0195732999433296 38.2683205490896 0.0195732999375405 38.2683205463125 
! Port Impedance50               0                50               0                

1.28             0.998516760910337 -81.1741062574289 0.000661563875694953 13.3593438653152 0.000661563875694952 13.3593438653152 0.998569841507268 -79.268616671552 
! Gamma         !               0.0198843070272729 38.8757542128662 0.0198843070215142 38.8757542100536 
! Port Impedance50               0                50               0                

1.3              0.998493640039525 -82.4284303495024 0.000674988721896702 11.9145405738411 0.000674988721896702 11.914540573841  0.998547871153548 -80.4936706538192 
! Gamma         !               0.0201931613060522 39.4831878804576 0.02019316130035 39.4831878776232 
! Port Impedance50               0                50               0                

1.32             0.998470290796025 -83.6821622285362 0.000688563336189941 10.4698325162314 0.000688563336189942 10.4698325162311 0.998525698995772 -81.7181507821738 
! Gamma         !               0.0205000801518978 40.0906215514124 0.0205000801462742 40.0906215485677 
! Port Impedance50               0                50               0                

1.34             0.998446710658718 -84.9352972541421 0.000702289903502825 9.02506060228171 0.000702289903502827 9.02506060228147 0.998503323259641 -82.9420523225264 
! Gamma         !               0.0208052620159524 40.6980552253269 0.0208052620104255 40.6980552224822 
! Port Impedance50               0                50               0                

1.36             0.998422896760783 -86.1878309761713 0.000716170607013043 7.5800731793979  0.000716170607013045 7.58007317939769 0.998480741846444 -84.1653707150566 
! Gamma         !               0.0211088881312069 41.305488901839  0.0211088881257918 41.3054888990037 
! Port Impedance50               0                50               0                

1.38             0.998398845893685 -87.4397591365648 0.000730207627529166 6.13472553789744 0.000730207627529169 6.13472553789718 0.998457952336666 -85.3881015759165 
! Gamma         !               0.0214111240449744 41.9129225806248 0.0214111240396832 41.912922577807  
! Port Impedance50               0                50               0                

1.4              0.998374554511299 -88.691077671165 0.000744403142887316 4.68887945882239 0.000744403142887318 4.68887945882214 0.998434951993719 -86.6102406988973 
! Gamma         !               0.0217121210001467 42.5203562613939 0.0217121209949893 42.5203562586006 
! Port Impedance50               0                50               0                

1.42             0.99835001873415 -89.9417827114866 0.000758759327361341 3.2424028002099  0.000758759327361342 3.24240280020962 0.998411737767784 -87.8317840570606 
! Gamma         !               0.0220120171820579 43.1277899438851 0.0220120171770417 43.1277899411228 
! Port Impedance50               0                50               0                

1.44             0.998325234353728 -91.1918705864467 0.000773278351085016 1.79516911820201 0.000773278351085017 1.79516911820175 0.998388306299737 -89.0527278043334 
! Gamma         !               0.0223109388456896 43.7352236278646 0.0223109388408205 43.7352236251388 
! Port Impedance50               0                50               0                

1.46             0.998300196836878 -92.4413378240568 0.000787962379484958 0.347057319761924 0.000787962379484959 0.347057319761609 0.998364653925126 -90.2730682770671 
! Gamma         !               0.0226090013361572 44.3426573131233 0.0226090013314394 44.3426573104384 
! Port Impedance50               0                50               0                

1.48             0.998274901330237 -93.6901811530714 0.000802813572723259 -1.10204865589638 0.000802813572723261 -1.10204865589666 0.998340776678212 -91.4928019955595 
! Gamma         !               0.0229063100138492 44.950090999472  0.0229063100092857 44.9500909968322 
! Port Impedance50               0                50               0                

1.5              0.998249342664685 -94.9383975045978 0.000817834085148998 -2.55226012975742 0.000817834085149 -2.55226012975769 0.998316670296016 -92.7119256655425 
! Gamma         !               0.0232029610942423 45.557524686742  0.0232029610898347 45.5575246841508 
! Port Impedance50               0                50               0                

1.52             0.998223515359831 -96.1859840136655 0.000833026064757992 -4.00368395166137 0.000833026064757996 -4.00368395166171 0.998292330222391 -93.9304361796309 
! Gamma         !               0.0234990424112376 46.1649583747813 0.0234990424069866 46.1649583722415 
! Port Impedance50               0                50               0                

1.54             0.998197413628466 -97.4329380207535 0.000848391652660356 -5.45642274725997 0.000848391652660358 -5.45642274726033 0.998267751612084 -95.1483306187367 
! Gamma         !               0.0237946341118375 46.7723920634535 0.0237946341077429 46.772392060968  
! Port Impedance50               0                50               0                

1.56             0.99817103138102 -98.679257073278 0.000863932982555562 -6.91057514515624 0.000863932982555564 -6.91057514515657 0.998242929334786 -96.3656062534462 
! Gamma         !               0.0240898092890909 47.3798257526369 0.0240898092851519 47.3798257502074 
! Port Impedance50               0                50               0                

1.58             0.998144362229982 -99.9249389270385 0.000879652180214882 -8.36623598592519 0.000879652180214885 -8.36623598592555 0.998217857979151 -97.582260545361 
! Gamma         !               0.0243846345594504 47.9872594422216 0.0243846345556655 47.98725943985   
! Port Impedance50               0                50               0                

1.6              0.998117399494271 -101.169981547623 0.000895551362971236 -9.82349651454953 0.000895551362971238 -9.82349651454989 0.998192531856772 -98.7982911484023 
! Gamma         !               0.0246791705900024 48.5946931321097 0.0246791705863694 48.5946931297973 
! Port Impedance50               0                50               0                

1.62             0.998090136203568 -102.414383111775 0.00091163263921657 -11.2824445576563 0.000911632639216573 -11.2824445576567 0.998166945006117 -100.013695910079 
! Gamma         !               0.0249734725804291 49.2021268222136 0.0249734725769458 49.2021268199612 
! Port Impedance50               0                50               0                

1.64             0.998062565102577 -103.65814200871 0.000927898107907097 -12.7431646868091 0.000927898107907099 -12.7431646868095 0.998141091196406 -101.22847287272 
! Gamma         !               0.0252675907040363 49.8095605124545 0.0252675907006998 49.8095605102628 
! Port Impedance50               0                50               0                

1.66             0.998034678655225 -104.901256841409 0.000944349858076769 -14.2057383689946 0.00094434985807677 -14.205738368995 0.998114963931419 -102.442620274667 
! Gamma         !               0.0255615705117128 50.4169942027625 0.0255615705085198 50.4169942006322 
! Port Impedance50               0                50               0                

1.68             0.998006469048783 -106.143726427851 0.000960989968359541 -15.6702441053352 0.000960989968359545 -15.6702441053356 0.998088556453242 -103.656136551437 
! Gamma         !               0.0258554533022802 51.0244278930752 0.0258554532992274 51.0244278910064 
! Port Impedance50               0                50               0                

1.7              0.997977928197908 -107.385549802215 0.000977820506521083 -17.1367575589682 0.000977820506521085 -17.1367575589687 0.998061861745926 -104.869020336842 
! Gamma         !               0.0261492764623311 51.6318615833371 0.0261492764594149 51.6318615813299 
! Port Impedance50               0                50               0                

1.72             0.997949047748605 -108.626726216044 0.000994843529000657 -18.6053516729463 0.00099484352900066 -18.6053516729467 0.998034872539084 -106.081270464078 
! Gamma         !               0.0264430737783302 52.2392952734991 0.0264430737755468 52.2392952715534 
! Port Impedance50               0                50               0                

1.74             0.997919819082088 -109.86725513936 0.0010120610804641 -20.0760967789373 0.00101206108046411 -20.0760967789377 0.998007581311381 -107.292885966771 
! Gamma         !               0.0267368757234733 52.8467289635178 0.026736875720819 52.8467289616332 
! Port Impedance50               0                50               0                

1.76             0.997890233318558 -111.107136261741 0.00102947519336884 -21.5490606974386 0.00102947519336884 -21.5490606974391 0.997979980293957 -108.503866079996 
! Gamma         !               0.0270307097215471 53.4541626533538 0.0270307097190178 53.4541626515302 
! Port Impedance50               0                50               0                

1.78             0.99786028132088 -112.346369493362 0.001047087887542 -23.024308830153 0.00104708788754201 -23.0243088301535 0.997952061473746 -109.714210241251 
! Gamma         !               0.0273246003898056 54.0615963429748 0.0273246003873974 54.0615963412111 
! Port Impedance50               0                50               0                

1.8              0.997829953698175 -113.584954965986 0.00106490116977292 -24.5019042451255 0.00106490116977293 -24.5019042451259 0.997923816596715 -110.923918091401 
! Gamma         !               0.0276185697626882 54.6690300323501 0.027618569760397 54.6690300306459 
! Port Impedance50               0                50               0                

1.82             0.997799240809292 -114.822893033922 0.00108291703342113 -25.9819077551848 0.00108291703342114 -25.9819077551852 0.997895237170998 -112.132989475585 
! Gamma         !               0.0279126374980186 55.2764637214546 0.0279126374958404 55.2764637198091 
! Port Impedance50               0                50               0                

1.84             0.997768132766203 -116.06018427494 0.0011011374580414 -27.4643779901939 0.0011011374580414 -27.4643779901944 0.997866314469948 -113.341424444084 
! Gamma         !               0.0282068210671733 55.8838974102657 0.0282068210651041 55.883897408678  
! Port Impedance50               0                50               0                

1.86             0.997736619437278 -117.296829491143 0.00111956440902713 -28.9493714635708 0.00111956440902713 -28.9493714635713 0.997837039535082 -114.549223253157 
! Gamma         !               0.0285011359305617 56.4913310987648 0.0285011359285975 56.491331097234  
! Port Impedance50               0                50               0                

1.88             0.99770469045048 -118.532829709801 0.00113819983727386 -30.4369426335038 0.00113819983727387 -30.4369426335043 0.997807403178946 -115.75638636584 
! Gamma         !               0.0287955956996395 57.0987647869353 0.0287955956977764 57.0987647854605 
! Port Impedance50               0                50               0                

1.9              0.997672335196445 -119.768186184144 0.00115704567886427 -31.9271439592563 0.00115704567886428 -31.9271439592568 0.997777395987876 -116.962914452709 
! Gamma         !               0.0290902122865574 57.7061984747636 0.0290902122847916 57.7061984733436 
! Port Impedance50               0                50               0                

1.92             0.997639542831472 -121.002900394112 0.00117610385477667 -33.420025952923 0.00117610385477668 -33.4200259529235 0.997747008324665 -118.168808392611 
! Gamma         !               0.0293849960424519 58.3136321622388 0.0293849960407793 58.3136321608725 
! Port Impedance50               0                50               0                

1.94             0.997606302280411 -122.236974047072 0.00119537627061863 -34.915637226974 0.00119537627061863 -34.9156372269746 0.997716230331149 -119.374069273353 
! Gamma         !               0.0296799558852911 58.9210658493514 0.029679955883708 58.9210658480376 
! Port Impedance50               0                50               0                

1.96             0.997572602239464 -123.470409078484 0.00121486481638769 -36.4140245378992 0.0012148648163877 -36.4140245378998 0.997685051930687 -120.578698392363 
! Gamma         !               0.0299750994181059 59.5284995360944 0.0299750994166087 59.5284995348321 
! Port Impedance50               0                50               0                

1.98             0.997538431178874 -124.703207652535 0.0012345713662612 -37.9152328262428 0.0012345713662612 -37.9152328262433 0.997653462830563 -121.782697257313 
! Gamma         !               0.0302704330383663 60.1359332224623 0.0302704330369515 60.1359332212501 
! Port Impedance50               0                50               0                

2                0.997503777345545 -125.935372162731 0.00125449777841716 -39.4193052532983 0.00125449777841717 -39.4193052532988 0.997621452524292 -122.986067586705 
! Gamma         !               0.0305659620391929 60.7433669084512 0.0305659620378567 60.7433669072878 
! Port Impedance50               0                50               0                

2.02             0.997468628765551 -127.166905232446 0.00127464589488841 -40.9262832347159 0.00127464589488842 -40.9262832347163 0.997589010293852 -124.188811310426 
! Gamma         !               0.0308616907030356 61.3508005940587 0.0308616907017748 61.350800592943  
! Port Impedance50               0                50               0                

2.04             0.997432973246571 -128.397809715434 0.0012950175414521 -42.4362064712574 0.00129501754145211 -42.4362064712579 0.997556125211814 -125.390930570268 
! Gamma         !               0.0311576223883992 61.9582342792834 0.0311576223872103 61.958234278214  
! Port Impedance50               0                50               0                

2.06             0.997396798380227 -129.628088696304 0.00131561452755694 -43.9491129769209 0.00131561452755694 -43.9491129769214 0.997522786143406 -126.592427720411 
! Gamma         !               0.0314537596101411 62.5656679641255 0.0314537596090209 62.5656679631014 
! Port Impedance50               0                50               0                

2.08             0.997360091544353 -130.857745490946 0.00133643864629027 -45.4650391046398 0.00133643864629027 -45.4650391046403 0.997488981748485 -127.793305327873 
! Gamma         !               0.0317501041138294 63.1731016485858 0.0317501041127749 63.1731016476054 
! Port Impedance50               0                50               0                

2.1              0.997322839905166 -132.086783646928 0.00135749167438754 -46.9840195697536 0.00135749167438755 -46.984019569754 0.997454700483446 -128.993566172926 
! Gamma         !               0.0320466569446038 63.7805353326665 0.0320466569436118 63.7805353317286 
! Port Impedance50               0                50               0                

2.12             0.997285030419375 -133.315206943844 0.00137877537228642 -48.5060874714318 0.00137877537228643 -48.5060874714324 0.997419930603041 -130.193213249482 
! Gamma         !               0.0323434185109471 64.38796901637   0.0323434185100145 64.3879690154737 
! Port Impedance50               0                50               0                

2.14             0.997246649836202 -134.543019393632 0.00140029148422807 -50.0312743122261 0.00140029148422808 -50.0312743122266 0.997384660162127 -131.392249765433 
! Gamma         !               0.0326403886437436 64.9954026997001 0.0326403886428679 64.9954026988438 
! Port Impedance50               0                50               0                

2.16             0.997207684699341 -135.770225240844 0.00142204173840794 -51.5596100159123 0.00142204173840795 -51.5596100159129 0.997348877017357 -132.590679142973 
! Gamma         !               0.0329375666509693 65.602836382661  0.0329375666501476 65.6028363818434 
! Port Impedance50               0                50               0                

2.18             0.997168121348837 -136.996828962882 0.00144402784717874 -53.0911229437807 0.00144402784717875 -53.0911229437811 0.997312568828784 -133.788505018877 
! Gamma         !               0.0332349513683298 66.2102700652572 0.0332349513675593 66.2102700644772 
! Port Impedance50               0                50               0                

2.2              0.997127945922907 -138.222835270192 0.00146625150730794 -54.6258399095185 0.00146625150730795 -54.625839909519 0.997275723061418 -134.985731244744 
! Gamma         !               0.0335325412061399 66.817703747494  0.0335325412054182 66.8177037467502 
! Port Impedance50               0                50               0                

2.22             0.997087144359694 -139.448249106421 0.0014887144002924 -56.1637861928288 0.00148871440029241 -56.1637861928292 0.997238326986702 -136.182361887216 
! Gamma         !               0.0338303341927153 67.4251374293769 0.0338303341920399 67.4251374286684 
! Port Impedance50               0                50               0                

2.24             0.997045702398955 -140.673075648533 0.00151141819273263 -57.7049855519151 0.00151141819273263 -57.7049855519156 0.997200367683937 -137.378401228155 
! Gamma         !               0.0341283280145239 68.0325711109126 0.0341283280138923 68.032571110238  
! Port Impedance50               0                50               0                

2.26             0.997003605583695 -141.897320306887 0.00153436453676915 -59.2494602349648 0.00153436453676915 -59.2494602349653 0.997161832041656 -138.573853764793 
! Gamma         !               0.0344265200533276 68.6400047921068 0.0344265200527377 68.640004791465  
! Port Impedance50               0                50               0                

2.28             0.996960839261751 -143.120988725276 0.00155755507058356 -60.7972309907474 0.00155755507058357 -60.7972309907478 0.997122706758919 -139.768724209846 
! Gamma         !               0.0347249074205281 69.2474384729668 0.0347249074199776 69.2474384723565 
! Port Impedance50               0                50               0                

2.3              0.996917388587306 -144.344086780925 0.00158099141896665 -62.3483170784495 0.00158099141896666 -62.3483170784499 0.99708297834658 -140.963017491591 
! Gamma         !               0.0350234869889117 69.8548721534993 0.0350234869883986 69.8548721529194 
! Port Impedance50               0                50               0                

2.32             0.996873238522376 -145.566620584452 0.00160467519395599 -63.9027362768564 0.001604675193956 -63.9027362768568 0.997042633128487 -142.156738753922 
! Gamma         !               0.0353222554219778 70.4623058337112 0.0353222554214999 70.4623058331608 
! Port Impedance50               0                50               0                

2.34             0.996828373838228 -146.788596479794 0.00162860799554557 -65.4605048929865 0.00162860799554558 -65.4605048929869 0.997001657242638 -143.349893356361 
! Gamma         !               0.0356212092010166 71.0697395136106 0.0356212092005722 71.0697395130883 
! Port Impedance50               0                50               0                

2.36             0.996782779116767 -148.010021044084 0.0016527914124695 -67.0216377702852 0.00165279141246951 -67.0216377702857 0.996960036642287 -144.542486874041 
! Gamma         !               0.0359203446500967 71.677173193204  0.0359203446496837 71.6771731927091 
! Port Impedance50               0                50               0                

2.38             0.996736438751881 -149.230901087496 0.00167722702306231 -68.5861482964743 0.00167722702306231 -68.5861482964747 0.996917757097015 -145.734525097659 
! Gamma         !               0.0362196579591037 72.2846068724997 0.0362196579587205 72.2846068720308 
! Port Impedance50               0                50               0                

2.4              0.99668933695074 -150.451243653054 0.0017019163961978 -70.1540484111538 0.00170191639619781 -70.1540484111542 0.996874804193745 -146.926014033392 
! Gamma         !               0.0365191452049681 72.892040551505  0.036519145204613 72.8920405510613 
! Port Impedance50               0                50               0                

2.42             0.996641457735061 -151.671056016394 0.00172686109230868 -71.725348613249 0.00172686109230869 -71.7253486132494 0.99683116333773 -148.116959902782 
! Gamma         !               0.0368188023712049 73.4994742302278 0.0368188023708763 73.4994742298082 
! Port Impedance50               0                50               0                

2.44             0.996592784942346 -152.890345685492 0.0017520626644888 -73.3000579683889 0.00175206266448881 -73.3000579683894 0.996786819753492 -149.307369142594 
! Gamma         !               0.0371186253658843 74.1069079086757 0.0371186253655805 74.1069079082793 
! Port Impedance50               0                50               0                

2.46             0.99654330222708 -154.109120400351 0.00177752265967995 -74.878184116304 0.00177752265967996 -74.8781841163045 0.996741758485737 -150.497248404629 
! Gamma         !               0.037418610038138 74.7143415868564 0.0374186100378576 74.7143415864823 
! Port Impedance50               0                50               0                

2.48             0.996492993061907 -155.327388132652 0.00180324261994485 -76.4597332783225 0.00180324261994486 -76.459733278323 0.996695964400223 -151.686604555518 
! Gamma         !               0.0377187521933063 75.3217752647778 0.0377187521930479 75.3217752644249 
! Port Impedance50               0                50               0                

2.5              0.996441840738774 -156.545157085362 0.00182922408382791 -78.0447102650468 0.00182922408382792 -78.0447102650472 0.996649422184609 -152.875444676478 
! Gamma         !               0.0380190476068159 75.9292089424474 0.0380190476065782 75.9292089421148 
! Port Impedance50               0                50               0                

2.52             0.996389828370062 -157.762435692303 0.00185546858780521 -79.6331184842826 0.00185546858780522 -79.633118484283 0.996602116349265 -154.06377606303 
! Gamma         !               0.0383194920368784 76.5366426198729 0.0383194920366601 76.5366426195599 
! Port Impedance50               0                50               0                

2.54             0.996336938889684 -158.979232617684 0.00188197766782486 -81.2249599492969 0.00188197766782487 -81.2249599492974 0.996554031228059 -155.251606224696 
! Gamma         !               0.0386200812360892 77.1440762970619 0.0386200812358891 77.1440762967675 
! Port Impedance50               0                50               0                

2.56             0.996283155054178 -160.195556755595 0.00190875286093877 -82.820235287472 0.00190875286093878 -82.8202352874724 0.996505150979117 -156.438942884657 
! Gamma         !               0.0389208109620042 77.7515099740219 0.0389208109618211 77.7515099737454 
! Port Impedance50               0                50               0                

2.58             0.996228459443772 -161.411417229452 0.00193579570702679 -84.4189437494231 0.0019357957070268 -84.4189437494235 0.996455459585565 -157.625793979377 
! Gamma         !               0.0392216769867636 78.3589436507604 0.0392216769865965 78.3589436505009 
! Port Impedance50               0                50               0                

2.6              0.996172834463443 -162.626823391415 0.00196310775061369 -86.0210832186436 0.0019631077506137 -86.021083218644 0.996404940856231 -158.812167658196 
! Gamma         !               0.0395226751058308 78.9663773272846 0.0395226751056785 78.9663773270413 
! Port Impedance50               0                50               0                

2.62             0.99611626234397 -163.841784821752 0.00199069054277953 -87.6266502217383 0.00199069054277955 -87.6266502217387 0.996353578426356 -159.998072282897 
! Gamma         !               0.0398238011459052 79.5738110036019 0.0398238011457668 79.5738110033742 
! Port Impedance50               0                50               0                
