! Touchstone file exported from HFSS 2018.2.0
!        File:           C:/Users/10024/OneDrive - The University of Nottingham Ningbo China/Year 4/Final Year Project/HFSS project/Patch-1.aedt
!        Generated:      5:39:45 下午  3月 10, 2022
!        Design:         SMA_Reflect
!        Project:        Patch-1
!        Setup:          Setup1
!        Solution:       Sweep
!
! Variables:
!        MW = 1.992mm
!        ThruL = 5mm
!        g = 0.2mm
!        subH = 0.8mm
!        subX = 20mm
!        subY = 15mm
!
# GHZ S MA R 50.000000
! Modal data exported
! Port[1] = SMA_CONNECTOR1_1:1
! Port[2] = SMA_CONNECTOR2_1:1
1                0.999288988821788 -44.456270798763 0.00027838509671185 48.4887591074918 0.000278385096711851 48.488759107492  0.999321915490711 -42.9298035603915 
! Gamma         !               0.0151858380091284 30.3716836111894 0.0151858380091034 30.3716836111995 
! Port Impedance50               0                50               0                

1.02             0.999276457018816 -45.3429959883146 0.000284529844088587 47.6419538043524 0.000284529844088588 47.6419538043524 0.999309963196799 -43.7865191687844 
! Gamma         !               0.0154735941633456 30.9791173073392 0.0154735941633238 30.9791173073593 
! Port Impedance50               0                50               0                

1.04             0.999263940319827 -46.2295785599963 0.000290701217690985 46.7931766305604 0.000290701217690987 46.7931766305604 0.999298027165214 -44.6431220482751 
! Gamma         !               0.0157630434272254 31.5865510009309 0.0157630434272066 31.5865510009598 
! Port Impedance50               0                50               0                

1.06             0.999251438363463 -47.1160157257838 0.000296899754039218 45.9424887510206 0.000296899754039219 45.9424887510207 0.999286107077224 -45.4996098999244 
! Gamma         !               0.0160540771301503 32.1939846921347 0.0160540771301343 32.1939846921718 
! Port Impedance50               0                50               0                

1.08             0.999238950843243 -48.0023046995768 0.000303125999339463 45.0899441532943 0.000303125999339465 45.0899441532941 0.999274202671601 -46.3559804210629 
! Gamma         !               0.0163465911277767 32.8014183811127 0.0163465911277633 32.8014183811568 
! Port Impedance50               0                50               0                

1.1              0.999226477513704 -48.8884426973664 0.000309380508787794 44.2355903905806 0.000309380508787796 44.2355903905805 0.999262313750675 -47.2122313053516 
! Gamma         !               0.0166404857448268 33.4088520680186 0.0166404857448159 33.4088520680685 
! Port Impedance50               0                50               0                

1.12             0.99921401819464 -49.7744269374094 0.000315663845955738 43.3794692446976 0.000315663845955738 43.3794692446978 0.999250440184564 -48.0683602428472 
! Gamma         !               0.0169356657079442 34.0162857529976 0.0169356657079355 34.016285753053  
! Port Impedance50               0                50               0                

1.14             0.999201572773699 -50.6602546404093 0.000321976582249242 42.5216173182468 0.000321976582249243 42.5216173182469 0.999238581913819 -48.9243649200761 
! Gamma         !               0.0172320400696411 34.6237194361895 0.0172320400696344 34.6237194362495 
! Port Impedance50               0                50               0                

1.16             0.999189141207571 -51.5459230297041 0.000328319296433546 41.6620665640448 0.000328319296433547 41.6620665640448 0.999226738950716 -49.780243020115 
! Gamma         !               0.0175295221243336 35.2311531177248 0.0175295221243287 35.2311531177887 
! Port Impedance50               0                50               0                

1.18             0.999176723521979 -52.4314293314614 0.000334692574217154 40.8008447589192 0.000334692574217156 40.8008447589192 0.999214911379376 -50.6359922226776 
! Gamma         !               0.01782802931741 35.8385867977286 0.0178280293174068 35.8385867977956 
! Port Impedance50               0                50               0                

1.2              0.999164319810634 -53.3167707748799 0.000341097007888824 39.9379759281172 0.000341097007888823 39.9379759281174 0.999203099354908 -51.4916102042102 
! Gamma         !               0.0181274831482443 36.4460204763187 0.0181274831482425 36.4460204763883 
! Port Impedance50               0                50               0                

1.22             0.999151930233347 -54.2019445923979 0.00034753319600203 39.0734807258328 0.000347533196002032 39.0734807258328 0.999191303101712 -52.3470946379928 
! Gamma         !               0.0184278090680104 37.0534541536075 0.0184278090680098 37.053454153679  
! Port Impedance50               0                50               0                

1.24             0.999139555013406 -55.086948019909 0.000354001743101991 38.207376776705  0.000354001743101992 38.207376776705  0.999179522911099 -53.2024431942483 
! Gamma         !               0.0187289363731133 37.6608878297004 0.0187289363731137 37.6608878297736 
! Port Impedance50               0                50               0                

1.26             0.999127194434371 -55.9717782969846 0.000360503259490776 37.3396789825732 0.000360503259490776 37.3396789825732 0.999167759138319 -54.057653540259 
! Gamma         !               0.0190307980949983 38.2683215046979 0.0190307980949996 38.2683215047721 
! Port Impedance50               0                50               0                

1.28             0.999114848836377 -56.8564326671036 0.000367038361026565 36.4703997982722 0.000367038361026566 36.4703997982722 0.99915601219913 -54.9127233404902 
! Gamma         !               0.0193333308870576 38.875755178694  0.0193333308870597 38.8757551787689 
! Port Impedance50               0                50               0                

1.3              0.999102518612042 -57.7409083778887 0.00037360766895346 35.5995494798153 0.000373607668953461 35.5995494798152 0.999144282565979 -55.7676502567205 
! Gamma         !               0.0196364749092982 39.4831888517784 0.0196364749093008 39.4831888518534 
! Port Impedance50               0                50               0                

1.32             0.999090204202079 -58.6252026813502 0.000380211809758684 34.7271363079252 0.000380211809758686 34.7271363079252 0.999132570763895 -56.622431948181 
! Gamma         !               0.0199401737113922 40.0906225240351 0.0199401737113952 40.0906225241099 
! Port Impedance50               0                50               0                

1.34             0.999077906090653 -59.5093128341365 0.000386851415054312 33.8531667895396 0.000386851415054314 33.8531667895395 0.999120877366125 -57.4770660717003 
! Gamma         !               0.0202443741146822 40.6980561955429 0.0202443741146855 40.6980561956172 
! Port Impedance50               0                50               0                

1.36             0.999065624800585 -60.3932360977918 0.000393527121481007 32.9776458396124 0.000393527121481007 32.9776458396124 0.999109202989631 -58.3315502818578 
! Gamma         !               0.0205490260936658 41.3054898663767 0.0205490260936692 41.3054898664504 
! Port Impedance50               0                50               0                

1.38             0.999053360888413 -61.2769697390209 0.000400239570631472 32.1005769452804 0.000400239570631473 32.1005769452804 0.999097548290437 -59.1858822311441 
! Gamma         !               0.0208540826574417 41.9129235366063 0.0208540826574452 41.9129235366788 
! Port Impedance50               0                50               0                

1.4              0.999041114939398 -62.1605110299607 0.000406989408991629 31.2219623142238 0.000406989408991629 31.2219623142239 0.999085913958917 -60.0400595701293 
! Gamma         !               0.0211594997315563 42.520357206297  0.0211594997315597 42.5203572063683 
! Port Impedance50               0                50               0                

1.42             0.999028887562472 -63.0438572484592 0.00041377728789767 30.3418030088537 0.000413777287897671 30.3418030088537 0.999074300715039 -60.894079947638 
! Gamma         !               0.0214652360406449 43.1277908755105 0.0214652360406481 43.1277908755803 
! Port Impedance50               0                50               0                

1.44             0.999016679385202 -63.9270056783615 0.000420603863507446 29.4600990677731 0.000420603863507449 29.460099067773  0.999062709303598 -61.7479410109325 
! Gamma         !               0.0217712529922269 43.7352245443041 0.0217712529922298 43.7352245443722 
! Port Impedance50               0                50               0                

1.46             0.999004491048771 -64.809953609802 0.000427469796784686 28.5768496158069 0.000427469796784689 28.5768496158067 0.999051140489477 -62.6016404059032 
! Gamma         !               0.0220775145619724 44.3426582127317 0.022077514561975 44.3426582127979 
! Port Impedance50               0                50               0                

1.48             0.998992323203006 -65.6926983395048 0.000434375753494838 27.6920529637455 0.00043437575349484 27.6920529637455 0.999039595052946 -63.4551757772662 
! Gamma         !               0.0223839871807241 44.9500918808426 0.0223839871807263 44.950091880907  
! Port Impedance50               0                50               0                

1.5              0.998980176501478 -66.5752371710902 0.000441322404211354 26.805706698836  0.000441322404211356 26.805706698836  0.999028073785023 -64.3085447687691 
! Gamma         !               0.0226906396235231 45.557525548684  0.0226906396235248 45.5575255487461 
! Port Impedance50               0                50               0                

1.52             0.998968051596692 -67.4575674153884 0.000448310424331445 25.9178077669289 0.000448310424331449 25.9178077669288 0.999016577482921 -65.1617450234035 
! Gamma         !               0.022997442900857 46.1649592162992 0.0229974429008582 46.164959216359  
! Port Impedance50               0                50               0                

1.54             0.99895594913536 -68.3396863907606 0.000455340494100396 25.0283525471053 0.000455340494100399 25.0283525471052 0.999005106945573 -66.0147741836257 
! Gamma         !               0.0233043701523178 46.7723928837276 0.0233043701523184 46.7723928837851 
! Port Impedance50               0                50               0                

1.56             0.998943869753807 -69.2215914234258 0.000462413298643641 24.1373369195151 0.000462413298643643 24.137336919515  0.998993662969273 -66.8676298915842 
! Gamma         !               0.0236113965428286 47.3798265510066 0.0236113965428287 47.3798265510618 
! Port Impedance50               0                50               0                

1.58             0.998931814073477 -70.103279847796 0.000469529528005907 23.2447563270793 0.000469529528005908 23.2447563270793 0.998982246343416 -67.7203097893552 
! Gamma         !               0.0239184991615743 47.9872602181707 0.0239184991615737 47.9872602182234 
! Port Impedance50               0                50               0                

1.6              0.99891978269657 -70.9847490068167 0.000476689877196808 22.3506058316469 0.00047668987719681 22.3506058316468 0.998970857846367 -68.5728115191852 
! Gamma         !               0.0242256569237459 48.594693885251  0.0242256569237446 48.5946938853011 
! Port Impedance50               0                50               0                

1.62             0.998907776201813 -71.8659962523156 0.000483895046242316 21.4548801651284 0.000483895046242318 21.4548801651284 0.998959498241437 -69.4251327237415 
! Gamma         !               0.0245328504751867 49.2021275522767 0.0245328504751847 49.2021275523242 
! Port Impedance50               0                50               0                

1.64             0.998895795140362 -72.7470189453566 0.000491145740241639 20.5575737760833 0.000491145740241641 20.5575737760833 0.998948168272997 -70.2772710463691 
! Gamma         !               0.0248400621000076 49.8095612192743 0.0248400621000049 49.8095612193191 
! Port Impedance50               0                50               0                

1.66             0.998883840031838 -73.6278144566019 0.000498442669429071 19.6586808721802 0.000498442669429072 19.6586808721802 0.998936868662718 -71.1292241313564 
! Gamma         !               0.0251472756312219 50.4169948862678 0.0251472756312186 50.4169948863103 
! Port Impedance50               0                50               0                

1.68             0.99887191136051 -74.5083801666796 0.000505786549240444 18.7581954589145 0.000505786549240443 18.7581954589145 0.998925600105933 -71.980989624207 
! Gamma         !               0.0254544763644306 51.0244285532794 0.0254544763644266 51.0244285533192 
! Port Impedance50               0                50               0                

1.7              0.998860009571607 -75.3887134665582 0.000513178100383818 17.8561113749245 0.000513178100383821 17.8561113749245 0.998914363268142 -72.8325651719194 
! Gamma         !               0.0257616509745763 51.6318622203292 0.0257616509745716 51.6318622203665 
! Port Impedance50               0                50               0                

1.72             0.998848135067775 -76.268811757928 0.000520618048914188 16.9524223242142 0.000520618048914188 16.9524223242142 0.998903158781635 -73.6839484232739 
! Gamma         !               0.0260687874357682 52.2392958874353 0.0260687874357627 52.23929588747   
! Port Impedance50               0                50               0                

1.74             0.998836288205667 -77.1486724535886 0.00052810712631186 16.047121905563  0.000528107126311861 16.0471219055629 0.998891987242249 -74.5351370291269 
! Gamma         !               0.0263758749441698 52.8467295546135 0.0263758749441637 52.8467295546456 
! Port Impedance50               0                50               0                

1.76             0.998824469292678 -78.0282929778428 0.000535646069564368 15.1402036393691 0.000535646069564368 15.140203639369  0.998880849206263 -75.3861286427116 
! Gamma         !               0.026682903843928 53.4541632218787 0.0266829038439212 53.4541632219083 
! Port Impedance50               0                50               0                

1.78             0.998812678583804 -78.9076707668964 0.000543235621251676 14.2316609921571 0.00054323562125168 14.231660992157  0.998869745187402 -76.2369209199472 
! Gamma         !               0.0269898655561139 54.0615968892438 0.0269898655561065 54.0615968892709 
! Port Impedance50               0                50               0                

1.8              0.998800916278641 -79.7868032692652 0.000550876529634566 13.3214873989498 0.000550876529634567 13.3214873989498 0.99885867565398 -77.0875115197538 
! Gamma         !               0.0272967525106367 54.66903055672   0.0272967525106286 54.6690305567447 
! Port Impedance50               0                50               0                

1.82             0.998789182518514 -80.6656879461876 0.000558569548745988 12.4096762836922 0.000558569548745989 12.4096762836922 0.99884764102616 -77.9378981043755 
! Gamma         !               0.0276035580810833 55.2764642243174 0.0276035580810746 55.2764642243398 
! Port Impedance50               0                50               0                

1.84             0.998777477383731 -81.5443222720427 0.000566315438485365 11.4962210778923 0.000566315438485366 11.4962210778923 0.998836641673339 -78.7880783397093 
! Gamma         !               0.0279102765224316 55.8838978920446 0.0279102765224223 55.8838978920646 
! Port Impedance50               0                50               0                

1.86             0.998765800890963 -82.4227037347753 0.000574114964715681 10.5811152376307 0.000574114964715683 10.5811152376306 0.998825677911642 -79.6380498956422 
! Gamma         !               0.0282169029115773 56.4913315599093 0.0282169029115674 56.491331559927  
! Port Impedance50               0                50               0                

1.88             0.998754152990746 -83.3008298363266 0.000581968899363293 9.66435225907633 0.000581968899363293 9.6643522590763  0.998814750001542 -80.4878104463941 
! Gamma         !               0.0285234330906118 57.0987652279176 0.0285234330906014 57.0987652279332 
! Port Impedance50               0                50               0                

1.9              0.998742533565106 -84.1786980930703 0.000589878020520433 8.74592569263159 0.000589878020520434 8.74592569263156 0.998803858145584 -81.3373576708681 
! Gamma         !               0.028829863612783 57.7061988960748 0.028829863612772 57.7061988960882 
! Port Impedance50               0                50               0                

1.92             0.998730942425291 -85.0563060362549 0.000597843112550344 7.82582915581964 0.000597843112550347 7.82582915581962 0.998793002486225 -82.1866892530074 
! Gamma         !               0.0291361916910668 58.313632564385  0.0291361916910554 58.3136325643965 
! Port Impedance50               0                50               0                

1.94             0.998719379309624 -85.9336512124508 0.000605864966195001 6.90405634501681 0.000605864966195003 6.90405634501679 0.998782183103771 -83.0358028821584 
! Gamma         !               0.029442415149278 58.9210662328517 0.0294424151492661 58.921066232861  
! Port Impedance50               0                50               0                

1.96             0.998707843881465 -86.8107311840043 0.000613944378685447 5.9806010461223  0.000613944378685448 5.98060104612224 0.998771400014432 -83.8846962534412 
! Gamma         !               0.0297485323756418 59.5284999014772 0.0297485323756295 59.5284999014846 
! Port Impedance50               0                50               0                

1.98             0.998696335727271 -87.6875435294958 0.00062208215385468 5.05545714424983 0.000622082153854679 5.05545714424978 0.998760653168464 -84.7333670681256 
! Gamma         !               0.0300545422787511 60.1359335702633 0.0300545422787383 60.1359335702688 
! Port Impedance50               0                50               0                

2                0.998684854354772 -88.5640858442034 0.000630279102253159 4.128618632519   0.000630279102253161 4.12861863251899 0.998749942448415 -85.5818130340148 
! Gamma         !               0.0303604442458292 60.743367239211  0.0303604442458161 60.7433672392147 
! Port Impedance50               0                50               0                

2.02             0.998673399191236 -89.4403557405727 0.000638536041266927 3.20007962001523 0.000638536041266928 3.20007962001517 0.998739267667469 -86.4300318658337 
! Gamma         !               0.0306662381032207 61.3508009083205 0.0306662381032072 61.3508009083225 
! Port Impedance50               0                50               0                

2.04             0.998661969581835 -90.3163508486905 0.000646853795238335 2.26983433898311 0.000646853795238334 2.26983433898308 0.998728628567873 -87.2780212856253 
! Gamma         !               0.030971924079029 61.9582345775915 0.0309719240790152 61.9582345775918 
! Port Impedance50               0                50               0                

2.06             0.99865056478811 -91.1920688167641 0.00065523319558947 1.33787715131124 0.000655233195589473 1.33787715131127 0.998718024819464 -88.1257790231516 
! Gamma         !               0.0312775027678233 62.5656682470233 0.0312775027678093 62.565668247022  
! Port Impedance50               0                50               0                

2.08             0.99863918398652 -92.0675073116054 0.000663675080948313 0.404202554362246 0.000663675080948312 0.404202554362152 0.998707456018273 -88.9733028163016 
! Gamma         !               0.031582975097336 63.1731019166143 0.0315829750973217 63.1731019166115 
! Port Impedance50               0                50               0                

2.1              0.998627826267075 -92.9426640191198 0.000672180297277623 -0.531194813804936 0.000672180297277625 -0.53119481380492 0.998696921685219 -89.8205904115052 
! Gamma         !               0.0318883422970709 63.780535586363  0.0318883422970564 63.7805355863587 
! Port Impedance50               0                50               0                

2.12             0.998616490632071 -93.8175366447993 0.000680749698006718 -1.46832016977265 0.000680749698006719 -1.46832016977268 0.998686421264881 -90.667639564152 
! Gamma         !               0.0321936058687478 64.3879692562669 0.0321936058687331 64.3879692562613 
! Port Impedance50               0                50               0                

2.14             0.998605175994892 -94.6921229142204 0.000689384144166098 -2.40717858062506 0.000689384144166101 -2.40717858062505 0.998675954124351 -91.514448039017 
! Gamma         !               0.0324987675585051 64.9954029263235 0.0324987675584902 64.9954029263166 
! Port Impedance50               0                50               0                

2.16             0.998593881178891 -95.5664205735469 0.000698084504525094 -3.34777496029132 0.000698084504525094 -3.34777496029133 0.998665519552159 -92.3610136106915 
! Gamma         !               0.0328038293307879 65.6028365965299 0.0328038293307728 65.6028365965218 
! Port Impedance50               0                50               0                

2.18             0.998582604916363 -96.4404273900356 0.000706851655732524 -4.29011406633822 0.000706851655732525 -4.2901140663382 0.998655116757278 -93.2073340640192 
! Gamma         !               0.0331087933438466 66.2102702668829 0.0331087933438315 66.2102702668736 
! Port Impedance50               0                50               0                

2.2              0.998571345847571 -97.3141411525478 0.00071568648246055 -5.23420049718047 0.000715686482460552 -5.23420049718051 0.998644744868193 -94.0534071945382 
! Gamma         !               0.0334136619267771 66.8177039373789 0.0334136619267619 66.8177039373685 
! Port Impedance50               0                50               0                

2.22             0.998560102519863 -98.1875596720631 0.000724589877551729 -6.18003868968012 0.000724589877551731 -6.18003868968009 0.998634402932045 -94.8992308089284 
! Gamma         !               0.0337184375580297 67.4251376080143 0.0337184375580145 67.425137608003  
! Port Impedance50               0                50               0                

2.24             0.998548873386849 -99.0606807821985 0.000733562742169414 -7.12763291710753 0.000733562742169416 -7.12763291710752 0.998624089913836 -95.7448027254632 
! Gamma         !               0.0340231228453224 68.0325712787853 0.0340231228453071 68.0325712787729 
! Port Impedance50               0                50               0                

2.26             0.99853765680764 -99.9335023397299 0.000742605985951612 -8.07698728744002 0.000742605985951614 -8.07698728744002 0.998613804695704 -96.5901207744676 
! Gamma         !               0.0343277205068895 68.6400049496876 0.0343277205068742 68.6400049496744 
! Port Impedance50               0                50               0                

2.28             0.998526451046164 -100.806022225119 0.000751720527168372 -9.02810574197576 0.000751720527168373 -9.02810574197578 0.998603546076258 -97.4351827987802 
! Gamma         !               0.0346322333540038 69.2474386207172 0.0346322333539884 69.2474386207032 
! Port Impedance50               0                50               0                

2.3              0.998515254270531 -101.678238343041 0.000760907292882867 -9.98099205424023 0.000760907292882867 -9.98099205424032 0.998593312769972 -98.2799866542207 
! Gamma         !               0.0349366642747086 69.8548722918697 0.0349366642746934 69.8548722918549 
! Port Impedance50               0                50               0                

2.32             0.998504064552472 -102.550148622917 0.000770167219116243 -10.9356498291691 0.000770167219116243 -10.9356498291692 0.998583103406638 -99.1245302100614 
! Gamma         !               0.0352410162187015 70.4623059631407 0.0352410162186862 70.4623059631252 
! Port Impedance50               0                50               0                

2.34             0.998492879866821 -103.421751019454 0.000779501251016404 -11.8920825025458 0.000779501251016405 -11.8920825025458 0.998572916530882 -99.9688113495045 
! Gamma         !               0.0355452921833093 71.0697396345255 0.0355452921832941 71.0697396345095 
! Port Impedance50               0                50               0                

2.36             0.998481698091061 -104.293043513175 0.000788910343030833 -12.8502933406805 0.000788910343030833 -12.8502933406805 0.998562750601718 -100.812827970162 
! Gamma         !               0.0358494952005011 71.6771733060199 0.0358494952004861 71.6771733060032 
! Port Impedance50               0                50               0                

2.38             0.998470517004926 -105.164024110969 0.000798395459083601 -13.8102854403136 0.000798395459083602 -13.8102854403136 0.998552603992174 -101.656577984543 
! Gamma         !               0.0361536283248831 72.284606977619  0.0361536283248681 72.2846069776018 
! Port Impedance50               0                50               0                

2.4              0.998459334290047 -106.034690846631 0.000807957572756713 -14.7720617287281 0.000807957572756713 -14.7720617287282 0.998542474988959 -102.500059320542 
! Gamma         !               0.0364576946226247 72.8920406493185 0.0364576946226098 72.8920406493009 
! Port Impedance50               0                50               0                

2.42             0.998448147529657 -106.90504178141 0.000817597667475908 -15.7356249640617 0.000817597667475908 -15.7356249640617 0.998532361792177 -103.34326992193 
! Gamma         !               0.0367616971612654 73.4994743211136 0.0367616971612506 73.4994743210956 
! Port Impedance50               0                50               0                

2.44             0.998436954208331 -107.775075004555 0.0008273167367011 -16.7009777358008 0.0008273167367011 -16.7009777358008 0.998522262515097 -104.186207748858 
! Gamma         !               0.0370656390003548 74.1069079929999 0.0370656390003402 74.1069079929815 
! Port Impedance50               0                50               0                

2.46             0.998425751711789 -108.644788633873 0.000837115784121588 -17.6681224654502 0.000837115784121589 -17.6681224654502 0.998512175183964 -105.028870778354 
! Gamma         !               0.0373695231828793 74.7143416649725 0.0373695231828649 74.7143416649538 
! Port Impedance50               0                50               0                

2.48             0.998414537326729 -109.514180816277 0.000846995823856217 -18.6370614073631 0.000846995823856217 -18.6370614073631 0.99850209773785 -105.871257004829 
! Gamma         !               0.0376733527274319 75.3217753370272 0.0376733527274177 75.3217753370082 
! Port Impedance50               0                50               0                

2.5              0.99840330824071 -110.383249728343 0.000856957880658632 -19.6077966497252 0.000856957880658631 -19.6077966497253 0.99849202802856 -106.713364440585 
! Gamma         !               0.0379771306210821 75.9292090091594 0.0379771306210681 75.9292090091402 
! Port Impedance50               0                50               0                

2.52             0.998392061542071 -111.25199357687 0.000867002990127823 -20.5803301156805 0.000867002990127825 -20.5803301156805 0.998481963820567 -107.55519111633 
! Gamma         !               0.0382808598129067 76.5366426813646 0.0382808598128928 76.5366426813452 
! Port Impedance50               0                50               0                

2.54             0.998380794219898 -112.120410599435 0.000877132198924115 -21.5546635645918 0.000877132198924115 -21.5546635645917 0.998471902790995 -108.39673508169 
! Gamma         !               0.0385845432081408 77.1440763536384 0.0385845432081271 77.144076353619  
! Port Impedance50               0                50               0                

2.56             0.998369503164018 -112.988499064957 0.000887346564990776 -22.530798593427 0.000887346564990776 -22.530798593427 0.99846184252964 -109.237994405728 
! Gamma         !               0.0388881836629148 77.7515100259768 0.0388881836629013 77.7515100259573 
! Port Impedance50               0                50               0                

2.58             0.998358185165037 -113.856257274257 0.000897647157781461 -23.5087366382635 0.000897647157781461 -23.5087366382635 0.998451780539022 -110.078967177466 
! Gamma         !               0.0391917839795397 78.3589436983755 0.0391917839795263 78.3589436983559 
! Port Impedance50               0                50               0                

2.6              0.998346836914407 -114.723683560622 0.000908035058493646 -24.4884789759029 0.000908035058493646 -24.4884789759028 0.998441714234482 -110.91965150641 
! Gamma         !               0.0394953469023078 78.9663773708301 0.0394953469022946 78.9663773708105 
! Port Impedance50               0                50               0                

2.62             0.998335455004535 -115.590776290368 0.000918511360308253 -25.4700267255896 0.000918511360308254 -25.4700267255896 0.998431640944306 -111.760045523076 
! Gamma         !               0.0397988751137779 79.5738110433369 0.039798875113765 79.5738110433174 
! Port Impedance50               0                50               0                
