! Touchstone file exported from HFSS 2018.2.0
!        File:           C:/Users/10024/OneDrive - The University of Nottingham Ningbo China/Year 4/Final Year Project/HFSS project/Passive_Resonator_Antenna.aedt
!        Generated:      4:18:45 下午  3月 11, 2022
!        Design:         SMA_Thru
!        Project:        Passive_Resonator_Antenna
!        Setup:          Setup1
!        Solution:       Sweep
!
! Variables:
!        MW = 1.5mm
!        ThruL = 40mm
!        g = 0.2mm
!        subH = 0.8mm
!        subX = 20mm
!        subY = 50mm
!        tapW = 1.992mm
!
# GHZ S MA R 50.000000
! Modal data exported
! Port[1] = SMA_CONNECTOR1_1:1
! Port[2] = SMA_CONNECTOR2_1:1
1                0.140055881062706 -26.1892116253329 0.986358383997006 -116.433935992553 0.986358383997005 -116.433935992553 0.140071589065933 -27.4687132884383 
! Gamma         !               0.0151858380091087 30.3716836112168 0.0151858380091136 30.3716836111679 
! Port Impedance50               0                50               0                

1.02             0.141537264757265 -28.4896424181355 0.986037809068347 -118.745144334487 0.986037809068346 -118.745144334487 0.141554589228828 -29.8089871166687 
! Gamma         !               0.0154895718073354 30.9791172897614 0.0154895572813611 30.9791172628538 
! Port Impedance50               0                50               0                

1.04             0.142944033294659 -30.7895789253219 0.985725422569858 -121.055720312353 0.985725422569856 -121.055720312353 0.142963014705669 -32.1477040192161 
! Gamma         !               0.0157932975580804 31.586550965309  0.0157932754161127 31.5865509239757 
! Port Impedance50               0                50               0                

1.06             0.144275059907626 -33.0890226390155 0.985421767204576 -123.365687477413 0.985421767204575 -123.365687477413 0.144295734353565 -34.4848899291133 
! Gamma         !               0.0160970178365444 32.1939846388234 0.0160969927558031 32.1939845916227 
! Port Impedance50               0                50               0                

1.08             0.145529234858767 -35.3879770685456 0.985127369454132 -125.675070905766 0.98512736945413 -125.675070905766 0.145551633879994 -36.820571108101 
! Gamma         !               0.016400734544567 32.8014183110152 0.0164007095607657 32.801418263611  
! Port Impedance50               0                50               0                

1.1              0.146705465803177 -37.6864476032541 0.98484273845172 -127.983897170787 0.98484273845172 -127.983897170787 0.146729616217049 -39.1547741909096 
! Gamma         !               0.0167044490647559 33.4088519823989 0.0167044260258196 33.4088519383266 
! Port Impedance50               0                50               0                

1.12             0.147802678179023 -39.9844413798109 0.98456836486306 -130.292194312464 0.98456836486306 -130.292194312464 0.147828601924269 -41.4875262142921 
! Gamma         !               0.017008162382523 34.0162856533408 0.0170081422939942 34.0162856145983 
! Port Impedance50               0                50               0                

1.14             0.148819815628127 -42.2819671525828 0.9843047197765  -132.599991803632 0.984304719776501 -132.599991803632 0.148847529622047 -43.8188546317078 
! Gamma         !               0.017311875182275 34.6237193240943 0.0173118584678013 34.6237192915954 
! Port Impedance50               0                50               0                

1.16             0.149755840448728 -44.5790351657056 0.984052253603462 -134.907320513043 0.984052253603461 -134.907320513043 0.149785356457721 -46.148787314349 
! Gamma         !               0.01761558792284 35.2311529948289 0.0176155746184201 35.2311529687492 
! Port Impedance50               0                50               0                

1.18             0.150609734082629 -46.8756570255848 0.983811394990471 -137.214212665274 0.983811394990471 -137.214212665274 0.150641058606536 -48.4773525390226 
! Gamma         !               0.0179193008962612 35.8385866656516 0.0179192907931265 35.8385866456843 
! Port Impedance50               0                50               0                

1.2              0.15138049763909 -49.1718455726171 0.983582549744091 -139.520701797417 0.983582549744091 -139.520701797417 0.151413631809712 -50.8045789632431 
! Gamma         !               0.0182230142733164 36.4460203366254 0.0182230070212463 36.4460203221733 
! Port Impedance50               0                50               0                

1.22             0.15206715245783 -51.4676147509609 0.983366099770124 -141.826822712546 0.983366099770125 -141.826822712546 0.152102091951994 -53.1304955877395 
! Gamma         !               0.0185267281384789 37.0534540077807 0.0185267233188893 37.0534539980935 
! Port Impedance50               0                50               0                

1.24             0.152668740713653 -53.7629794752306 0.983162402028541 -144.132611429926 0.983162402028541 -144.132611429926 0.152705475681045 -55.4551317064536 
! Gamma         !               0.0188304425165206 37.6608876791263 0.018830439692671 37.6608876733977 
! Port Impedance50               0                50               0                

1.26             0.153184326065209 -56.0579554929931 0.98297178750568 -146.438105131942 0.982971787505681 -146.438105131942 0.153222841071214 -57.778516843968 
! Gamma         !               0.0191341573925296 38.2683213506559 0.0191341561426097 38.2683213480896 
! Port Impedance50               0                50               0                

1.28             0.153612994350504 -58.3525592419595 0.982794560205364 -148.743342107727 0.982794560205365 -148.743342107727 0.153653268334147 -60.1006806801925 
! Gamma         !               0.0194378727267686 38.8757550223549 0.0194378726643494 38.8757550222075 
! Port Impedance50               0                50               0                

1.3              0.15395385433178 -60.6468077007484 0.982630996160678 -151.048361693463 0.982630996160679 -151.048361693463 0.153995860578848 -62.4216529620112 
! Gamma         !               0.0197415884655198 39.4831886942031 0.0197415892508419 39.4831886958097 
! Port Impedance50               0                50               0                

1.32             0.15420603849244 -62.9407182320709 0.982481342468279 -153.353204209348 0.98248134246828 -153.353204209348 0.154249744623763 -64.7414634014728 
! Gamma         !               0.0200453045488279 40.090622366178  0.0200453058935951 40.090622368965  
! Port Impedance50               0                50               0                

1.34             0.154368703888663 -65.2343084171537 0.98234581634727 -155.657910893208 0.982345816347271 -155.657910893208 0.154414071863488 -67.0601415599881 
! Gamma         !               0.0203490209158706 40.6980560382577 0.0203490225835767 40.6980560417463 
! Port Impedance50               0                50               0                

1.36             0.154441033058363 -67.5275958801473 0.98222460422476 -157.962523830739 0.982224604224761 -157.962523830739 0.154488019192668 -69.3777167178633 
! Gamma         !               0.0206527375085314 41.3054897104201 0.0206527393118492 41.3054897142248 
! Port Impedance50               0                50               0                

1.38             0.154422234990091 -69.820598101191 0.982117860850436 -160.267085882377 0.982117860850438 -160.267085882377 0.154470789989659 -71.6942177283609 
! Gamma         !               0.0209564542736294 41.9129233826459 0.0209564560699956 41.9129233864674 
! Port Impedance50               0                50               0                

1.4              0.154311546154433 -72.1133322167105 0.982025708442624 -162.571640606804 0.982025708442624 -162.571640606804 0.154361615162415 -74.0096728553239 
! Gamma         !               0.021260171164161 42.5203570549178 0.0212601728503859 42.5203570585339 
! Port Impedance50               0                50               0                

1.42             0.154108231600349 -74.4058148053874 0.981948235868467 -164.876232181072 0.981948235868468 -164.876232181072 0.154159754259   -76.324109593229 
! Gamma         !               0.0215638881398307 43.127790727221  0.0215638896463232 43.1277907304774 
! Port Impedance50               0                50               0                

1.44             0.153811586118728 -76.6980616580909 0.98188549786108 -167.180905317375 0.981885497861078 -167.180905317375 0.153864496644983 -78.6375544683363 
! Gamma         !               0.0218676051670837 43.7352243995424 0.0218676064521017 43.7352244023432 
! Port Impedance50               0                50               0                

1.46             0.153420935475418 -78.9900875298545 0.981837514276663 -169.485705176483 0.981837514276665 -169.485705176483 0.15347516274992 -80.9500328193779 
! Gamma         !               0.0221713222188022 44.3426580718731 0.0221713232630028 44.3426580741677 
! Port Impedance50               0                50               0                

1.48             0.152935637715691 -81.2819058717807 0.981804269394831 -171.790677277863 0.981804269394837 -171.790677277863 0.152991105384701 -83.2615685559754 
! Gamma         !               0.0224750392737902 44.9500917442052 0.0224750400752465 44.9500917459813 
! Port Impedance50               0                50               0                

1.5              0.152355084541662 -83.5735285404461 0.981785711265546 -174.095867406533 0.981785711265548 -174.095867406533 0.152411711131707 -85.5721838926557 
! Gamma         !               0.0227787563161365 45.5575254165322 0.022778756885916 45.5575254178063 
! Port Impedance50               0                50               0                

1.52             0.151678702764889 -85.8649654819676 0.981781751106178 -176.401321516681 0.981781751106179 -176.401321516681 0.151736401809177 -87.8818990559939 
! Gamma         !               0.0230824733345229 46.1649590888504 0.0230824736928643 46.1649590896602 
! Port Impedance50               0                50               0                

1.54             0.150905955834303 -88.1562243877262 0.981792262752705 -178.707085632139 0.981792262752706 -178.707085632139 0.150964636010853 -90.1907319619763 
! Gamma         !               0.0233861903215247 46.7723927611569 0.0233861904946155 46.7723927615543 
! Port Impedance50               0                50               0                

1.56             0.1500363454414  -90.4473103178784 0.981817082168799 178.986794256243 0.9818170821688  178.986794256243 0.150095910722048 -92.4986978601708 
! Gamma         !               0.0236899072729371 47.3798264334503 0.0236899072902622 47.3798264334959 
! Port Impedance50               0                50               0                

1.58             0.149069413202593 -92.7382252885123 0.981856007017144 176.680272296204 0.981856007017145 176.680272296204 0.149129763012473 -94.8058089407083 
! Gamma         !               0.0239936241871474 47.9872601057302 0.0239936240793673 47.9872601054889 
! Port Impedance50               0                50               0                

1.6              0.148004742419207 -95.0289678173951 0.981908796297267 174.373302882581 0.981908796297268 174.373302882581 0.148065771806105 -97.1120738993232 
! Gamma         !               0.024297341064567 48.5946937779964 0.0242973408618726 48.5946937775334 
! Port Impedance50               0                50               0                

1.62             0.146841959914696 -97.3195324224542 0.981975170054419 172.065840768571 0.98197517005442 172.065840768571 0.146903559727707 -99.4174974548683 
! Gamma         !               0.0246010579071284 49.20212745025   0.0246010576380138 49.2021274496282 
! Port Impedance50               0                50               0                

1.64             0.145580737948479 -99.6099090660441 0.982054809164178 169.757841179628 0.982054809164179 169.757841179628 0.145642795025432 -101.722079812642 
! Gamma         !               0.0249047747178506 49.8095611224916 0.0249047744082464 49.8095611217692 
! Port Impedance50               0                50               0                

1.66             0.144220796205153 -101.90008253677 0.982147355197555 167.449259929808 0.982147355197556 167.449259929808 0.144283193568219 -104.025816065602 
! Gamma         !               0.0252084915004699 50.416994794723  0.0252084911731795 50.4169947939525 
! Port Impedance50               0                50               0                

1.68             0.142761903857392 -104.190031759048 0.982252410371533 165.140053540405 0.982252410371534 165.140053540405 0.142824520916306 -106.328695523995 
! Gamma         !               0.0255122082591343 51.0244284669455 0.0255122079335212 51.0244284661722 
! Port Impedance50               0                50               0                

1.7              0.141203881700343 -106.479729018664 0.982369537590016 162.830179360656 0.982369537590016 162.830179360656 0.141266594462672 -108.630700962019 
! Gamma         !               0.0258159249981551 51.6318621391612 0.0258159246900311 51.6318621384227 
! Port Impedance50               0                50               0                

1.72             0.139546604354728 -108.76913909019 0.982498260580245 160.519595690299 0.982498260580246 160.519595690299 0.139609285642596 -110.931807767826 
! Gamma         !               0.0261196417218112 52.239295811371  0.0261196414434829 52.2392958106979 
! Port Impedance50               0                50               0                

1.74             0.137790002535335 -111.058218249218 0.982638064129769 158.208261903733 0.982638064129769 158.208261903733 0.13785252220803 -113.231982980288 
! Gamma         !               0.026423358434199 52.8467294835766 0.0264233581946338 52.8467294829916 
! Port Impedance50               0                50               0                

1.76             0.135934065381032 -113.346913148701 0.982788394429016 155.896138575498 0.982788394429016 155.896138575498 0.135996290562878 -115.531184192395 
! Gamma         !               0.0267270751391225 53.4541631557795 0.0267270749442015 53.4541631552985 
! Port Impedance50               0                50               0                

1.78             0.133978842841826 -115.635159534178 0.98294865952454 153.583187606803 0.982948659524541 153.583187606803 0.134040638154697 -117.829358296733 
! Gamma         !               0.027030791840018 54.0615968279813 0.0270307916928474 54.0615968276135 
! Port Impedance50               0                50               0                

1.8              0.131924448118   -117.922880766992 0.983118229887832 151.26937235274  0.983118229887833 151.26937235274  0.131985675917834 -120.126440042933 
! Gamma         !               0.0273345085399065 54.6690305001825 0.0273345084411646 54.6690304999312 
! Port Impedance50               0                50               0                

1.82             0.129771060145797 -120.209986117455 0.983296439104553 148.954657749882 0.983296439104554 148.954657749882 0.129831580762383 -122.422350370013 
! Gamma         !               0.0276382252413709 55.2764641723844 0.0276382251896706 55.2764641722483 
! Port Impedance50               0                50               0                

1.84             0.127518926123644 -122.496368780879 0.983482584688805 146.639010443853 0.983482584688805 146.639010443853 0.127578598102962 -124.716994467699 
! Gamma         !               0.0279419419465503 55.8838978445876 0.0279419419388043 55.8838978445606 
! Port Impedance50               0                50               0                

1.86             0.125168364072503 -124.781903557881 0.983675929026868 144.322398916497 0.983675929026868 144.322398916497 0.125227044420765 -127.010259509547 
! Gamma         !               0.0282456586571513 56.4913315167929 0.0282456586889253 56.4913315168656 
! Port Impedance50               0                50               0                

1.88             0.122719765423578 -127.066444125574 0.983875700454533 142.004793612222 0.983875700454533 142.004793612222 0.122777309852049 -129.302011986267 
! Gamma         !               0.0285493753744687 57.0987651890007 0.0285493754403156 57.0987651891608 
! Port Impedance50               0                50               0                

1.9              0.120173597626384 -129.349819807213 0.984081094471845 139.686167063052 0.984081094471846 139.686167063052 0.120229860795962 -131.592094548981 
! Gamma         !               0.0288530920994154 57.7061988612114 0.0288530921931843 57.7061988614443 
! Port Impedance50               0                50               0                

1.92             0.11753040677017 -131.631831723002 0.984291275098667 137.366494011949 0.984291275098668 137.366494011949 0.117585242534492 -133.880322247939 
! Gamma         !               0.0291568088325578 58.3136325334252 0.0291568089476719 58.313632533715  
! Port Impedance50               0                50               0                

1.94             0.114790820211795 -133.912248172249 0.984505376374049 135.045751533878 0.98450537637405 135.045751533878 0.114844081857482 -136.166478020338 
! Gamma         !               0.0294605255741544 58.921066205642  0.0294605257038573 58.9210662059724 
! Port Impedance50               0                50               0                

1.96             0.111955549203668 -136.190799054003 0.984722504001846 132.723919154133 0.984722504001847 132.723919154133 0.112007089686059 -138.450307238906 
! Gamma         !               0.0297642423241956 59.5284998778619 0.0297642424617644 59.5284998782155 
! Port Impedance50               0                50               0                

1.98             0.109025391516233 -138.467169075877 0.984941737144507 130.400978963361 0.984941737144507 130.400978963361 0.109075063688588 -140.731511076689 
! Gamma         !               0.0300679590824446 60.1359335500851 0.0300679592213689 60.1359335504454 
! Port Impedance50               0                50               0                

2                0.106001234050897 -140.740989423402 0.985162130366274 128.076915728751 0.985162130366275 128.076915728751 0.106048890884686 -143.009738367958 
! Gamma         !               0.0303716758484768 60.743367222311  0.030371675982606 60.7433672226614 
! Port Impedance50               0                50               0                

2.02             0.102884055441577 -143.011827456952 0.985382715726395 125.751717000807 0.985382715726395 125.751717000807 0.102929550234842 -145.284575542114 
! Gamma         !               0.0306753926217171 61.3508008945398 0.030675392745377 61.3508008948651 
! Port Impedance50               0                50               0                

2.04             0.0996749286463053 -145.279173858453 0.985602505022135 123.425373215127 0.985602505022135 123.425373215128 0.0997181152163984 -147.555534065923 
! Gamma         !               0.0309791094014758 61.9582345667707 0.0309791095095567 61.9582345670566 
! Port Impedance50               0                50               0                

2.06             0.0963750235352973 -147.542426448317 0.985820492180631 121.097877788592 0.985820492180632 121.097877788592 0.0964157563912642 -149.822034632109 
! Gamma         !               0.0312828261869799 62.5656682390041 0.0312828262749986 62.5656682392381 
! Port Impedance50               0                50               0                

2.08             0.0929856094889424 -149.80086960868 0.986035655797712 118.769227209354 0.986035655797712 118.769227209354 0.0930237439775303 -152.083387054164 
! Gamma         !               0.0315865429774031 63.1731019112391 0.0315865430415425 63.1731019114097 
! Port Impedance50               0                50               0                

2.1              0.0895080580297123 -152.053647842302 0.986246961820898 116.439421120025 0.986246961820899 116.439421120025 0.0895434504471131 -154.338764429501 
! Gamma         !               0.0318902597718911 63.7805355834757 0.0318902598090182 63.7805355835732 
! Port Impedance50               0                50               0                

2.12             0.0859438455272956 -154.299731406456 0.986453366372839 114.108462393439 0.98645336637284 114.108462393439 0.0859763531862219 -156.587169555712 
! Gamma         !               0.0321939765695841 64.3879692557134 0.0321939765772512 64.38796925573   
! Port Impedance50               0                50               0                

2.14             0.0822945560392003 -156.537871090704 0.986653818710392 111.776357200391 0.986653818710393 111.776357200391 0.0823240372772842 -158.82739073305 
! Gamma         !               0.0324976933696364 64.9954029279524 0.0324976933460666 64.9954029278817 
! Port Impedance50               0                50               0                

2.16             0.0785618843835112 -158.766537900892 0.986847264313525 109.443115068733 0.986847264313526 109.443115068733 0.0785881984938793 -161.057942807407 
! Gamma         !               0.0328014101712319 65.6028366001917 0.0328014101152928 65.6028366000292 
! Port Impedance50               0                50               0                

2.18             0.074747639593487 -160.983841411498 0.987032648097101 107.108748933235 0.987032648097101 107.108748933236 0.074770646650802 -163.276987349956 
! Gamma         !               0.0331051269735975 66.2102702724313 0.0331051268847646 66.2102702721741 
! Port Impedance50               0                50               0                

2.2              0.070853748986544 -163.18741742048 0.987208917737506 104.773275175631 0.987208917737506 104.773275175631 0.0708733095305623 -165.482222806549 
! Gamma         !               0.0334088437760132 66.8177039446708 0.0334088436543252 66.8177039443177 
! Port Impedance50               0                50               0                

2.22             0.0668822632129079 -165.374270531342 0.987375027104943 102.436713654274 0.987375027104945 102.436713654274 0.0668982377344229 -167.670730543063 
! Gamma         !               0.0337125605778197 67.4251376169103 0.0337125604238289 67.4251376164613 
! Port Impedance50               0                50               0                

2.24             0.0628353628676074 -167.540549049985 0.987529939791057 100.099087722872 0.987529939791058 100.099087722872 0.0628476110147877 -169.838754641457 
! Gamma         !               0.0340162773784244 68.0325712891493 0.0340162771931423 68.0325712886057 
! Port Impedance50               0                50               0                

2.26             0.0587153676192495 -169.681215631769 0.987672632720444 97.7604242377732 0.987672632720444 97.7604242377733 0.0587237469992817 -171.981379624496 
! Gamma         !               0.034319994177304 68.6400049613876 0.0343199939621451 68.6400049607522 
! Port Impedance50               0                50               0                

2.28             0.0545247494569325 -171.789552678032 0.987802099833455 95.4207535533295 0.987802099833457 95.4207535533296 0.0545291138364941 -174.092046322064 
! Gamma         !               0.0346237109740067 69.2474386336253 0.0346237107307312 69.2474386329016 
! Port Impedance50               0                50               0                

2.3              0.0502661528360571 -173.856397020792 0.987917355826628 93.0801095048923 0.987917355826629 93.0801095048924 0.0502663494218788 -176.161802465237 
! Gamma         !               0.0349274277681518 69.8548723058619 0.034927427498809 69.8548723050549 
! Port Impedance50               0                50               0                

2.32             0.0459424267476813 -175.8689139179  0.988017439935978 90.7385293790359 0.988017439935979 90.7385293790359 0.045938292010549 -178.178101609685 
! Gamma         !               0.0352311445594288 70.4623059780975 0.0352311442663012 70.4623059772127 
! Port Impedance50               0                50               0                

2.34             0.0415566782301652 -177.808551325178 0.988101419747454 88.3960538706581 0.988101419747455 88.3960538706582 0.041548031329252 179.877202129719 
! Gamma         !               0.0355348613475949 71.069739650332  0.0355348610331449 71.0697396493756 
! Port Impedance50               0                50               0                

2.36             0.0371123664044397 -179.647456336037 0.988168395017849 86.052727026658  0.98816839501785 86.0527270266581 0.0370989984689554 178.031369226181 
! Gamma         !               0.0358385781324717 71.6771733225651 0.0358385777992909 71.6771733215439 
! Port Impedance50               0                50               0                

2.38             0.0326134779934337 178.658183840623 0.988217501488627 83.7085961759453 0.988217501488628 83.7085961759453 0.0325951338409634 176.327312480446 
! Gamma         !               0.0361422949139412 72.2846069947971 0.0361422945647032 72.2846069937183 
! Port Impedance50               0                50               0                

2.4              0.0280648799969029 177.181456032232 0.988247914674406 81.363711845606  0.988247914674406 81.363711845606  0.0280412250680144 174.836684083827 
! Gamma         !               0.0364460116919416 72.8920406670278 0.0364460113293586 72.8920406658987 
! Port Impedance50               0                50               0                

2.42             0.023473098163162 176.053949828451 0.988258853607084 79.0181276631058 0.988258853607086 79.0181276631058 0.0234436539926137 173.688652442482 
! Gamma         !               0.0367497284664623 73.4994743392572 0.0367497280932451 73.4994743380856 
! Port Impedance50               0                50               0                

2.44             0.0188482645121301 175.538374564149 0.98824958451617 76.6719002444917 0.988249584516172 76.6719002444918 0.0188122695624481 173.141566459077 
! Gamma         !               0.0370534452375386 74.1069080114851 0.0370534448563615 74.106908010279  
! Port Impedance50               0                50               0                

2.46             0.0142099278976735 176.242841544279 0.988219424425372 74.3250890686214 0.988219424425373 74.3250890686214 0.0141659946580037 173.795235281239 
! Gamma         !               0.0373571620052469 74.7143416837121 0.0373571616187165 74.7143416824789 
! Port Impedance50               0                50               0                

2.48             0.00960971997171255 179.937528707619 0.988167744645318 71.9777563375265 0.988167744645318 71.9777563375266 0.00955483342227448 177.405773640898 
! Gamma         !               0.0376608787696992 75.3217753559377 0.0376608783803271 75.3217753546853 
! Port Impedance50               0                50               0                

2.5              0.00527088342241518 -165.794915638974 0.988093974142102 69.6299668231007 0.988093974142103 69.6299668231007 0.00519743424619205 -168.390732981287 
! Gamma         !               0.0379645955310382 75.9292090281622 0.037964595141218 75.9292090268978 
! Port Impedance50               0                50               0                

2.52             0.00305911961972507 -103.360504803728 0.987997602761484 67.2817877003763 0.987997602761486 67.2817877003763 0.00299375513854805 -104.476643362289 
! Gamma         !               0.0382683122894323 76.5366427003855 0.0382683119014206 76.5366426991164 
! Port Impedance50               0                50               0                

2.54             0.00617058639787605 -54.6341281376734 0.987878184288675 64.9332883677439 0.987878184288676 64.9332883677439 0.00617621885834723 -55.9715455097087 
! Gamma         !               0.0385720290450702 77.1440763726079 0.0385720286609716 77.1440763713409 
! Port Impedance50               0                50               0                

2.56             0.0107146024362013 -44.0679320157987 0.987735339324156 62.5845402545451 0.987735339324158 62.5845402545451 0.0107438670206062 -45.7542603608025 
! Gamma         !               0.0388757457981576 77.7515100448293 0.0388757454199124 77.7515100435708 
! Port Impedance50               0                50               0                

2.58             0.0155004496570263 -41.2824739830644 0.987568757956456 60.2356166165568 0.987568757956457 60.2356166165568 0.015541702143131 -43.1091420363508 
! Gamma         !               0.0391794625489117 78.3589437170499 0.0391794621782879 78.3589437158062 
! Port Impedance50               0                50               0                

2.6              0.0203725210379676 -40.9191960706029 0.987378202213596 57.8865923199619 0.987378202213597 57.8865923199619 0.020422229474269 -42.8148671346429 
! Gamma         !               0.039483179297558 78.9663773892696 0.0394831789361458 78.9663773880462 
! Port Impedance50               0                50               0                

2.62             0.0252894882907179 -41.5978775574908 0.987163508275811 55.5375436144838 0.987163508275812 55.5375436144838 0.0253461662234648 -43.531750923202 
! Gamma         !               0.0397868960443266 79.5738110614886 0.0397868956935355 79.5738110602907 
! Port Impedance50               0                50               0                

2.64             0.0302339621586944 -42.8161858232418 0.986924588433255 53.1885478964385 0.986924588433255 53.1885478964385 0.0302968478170563 -44.7723728299943 
! Gamma         !               0.0400906127894488 80.181244733707  0.0400906124505079 80.1812447325392 
! Port Impedance50               0                50               0                
