! Touchstone file exported from HFSS 2018.2.0
!        File:           C:/Users/10024/OneDrive - The University of Nottingham Ningbo China/Year 4/Final Year Project/HFSS project/Passive_Resonator_Antenna.aedt
!        Generated:      4:19:02 下午  3月 11, 2022
!        Design:         SMA_Thru
!        Project:        Passive_Resonator_Antenna
!        Setup:          Setup1
!        Solution:       Sweep
!
! Variables:
!        MW = 3.5mm
!        ThruL = 40mm
!        g = 0.2mm
!        subH = 0.8mm
!        subX = 20mm
!        subY = 50mm
!        tapW = 1.992mm
!
# GHZ S MA R 50.000000
! Modal data exported
! Port[1] = SMA_CONNECTOR1_1:1
! Port[2] = SMA_CONNECTOR2_1:1
1                0.368961728428582 150.604791406488 0.924038998268372 -119.527972629463 0.924038998268371 -119.527972629463 0.36896572992425 150.774628316811 
! Gamma         !               0.0151858380091722 30.3716836111644 0.0151858380091474 30.3716836111808 
! Port Impedance50               0                50               0                

1.02             0.370134130663097 148.353710979419 0.92338937623525 -121.791787132325 0.923389376235248 -121.791787132325 0.37013874737662 148.529657318533 
! Gamma         !               0.0154894008956467 30.9791174269418 0.0154893785080866 30.9791173602856 
! Port Impedance50               0                50               0                

1.04             0.371051260427266 146.104544501511 0.922837117122822 -124.054136455253 0.92283711712282 -124.054136455253 0.371056459998376 146.28663772763  
! Gamma         !               0.0157930091090838 31.5865512007497 0.0157929708541642 31.5865510868327 
! Port Impedance50               0                50               0                

1.06             0.371713901567318 143.856977427736 0.922382871492576 -126.315344402291 0.922382871492576 -126.315344402291 0.371719653870611 144.045260900435 
! Gamma         !               0.016096653380233 32.1939849410938 0.0160966044747413 32.1939847954085 
! Port Impedance50               0                50               0                

1.08             0.372122810937668 141.610695381468 0.922027061339181 -128.57573546762 0.922027061339179 -128.575735467619 0.372129088385445 141.805218372859 
! Gamma         !               0.0164003260122073 32.8014186550536 0.0164002705811684 32.8014184898271 
! Port Impedance50               0                50               0                

1.1              0.372278715896083 139.365384864588 0.921769882689781 -130.835634175187 0.92176988268978 -130.835634175187 0.372285493703296 139.566202602839 
! Gamma         !               0.016704020646392 33.4088523484897 0.0167039619057455 33.4088521732459 
! Port Impedance50               0                50               0                

1.12             0.372182312966657 137.120733963632 0.921611307991649 -133.095364429634 0.921611307991647 -133.095364429634 0.372189569378084 137.327907709337 
! Gamma         !               0.0170077320595685 34.0162860262263 0.0170076724731364 34.0162858482619 
! Port Impedance50               0                50               0                

1.14             0.371834267650195 134.876433054544 0.921551088278714 -135.355248876659 0.921551088278714 -135.355248876659 0.371841984130296 135.090030210861 
! Gamma         !               0.0173114559885337 34.6237196922112 0.0173113974022739 34.6237195169987 
! Port Impedance50               0                50               0                

1.16             0.371235215362028 132.632175508739 0.921588755114951 -137.615608270996 0.92158875511495 -137.615608270996 0.371243376748176 132.852269766623 
! Gamma         !               0.0176151889788817 35.2311533496502 0.0176151327351678 35.2311531811811 
! Port Impedance50               0                50               0                

1.18             0.370385763477693 130.387658403298 0.921723622319718 -139.876760850211 0.921723622319716 -139.876760850211 0.370394358097782 130.614329923596 
! Gamma         !               0.017918928254961 35.838587001126  0.017918875289385 35.8385868421943 
! Port Impedance50               0                50               0                

1.2              0.369286494467326 128.142583238214 0.921954787487136 -142.139021712557 0.921954787487135 -142.139021712557 0.369295514222987 128.375918872855 
! Gamma         !               0.0182226716083455 36.4460206486997 0.018222622531292 36.4460205011455 
! Port Impedance50               0                50               0                

1.22             0.36793797009985 125.896656663764 0.922281133318343 -144.402702197254 0.922281133318341 -144.402702197254 0.367947410516762 126.136750218775 
! Gamma         !               0.0185264173024553 37.0534542939966 0.0185263724674714 37.0534541589048 
! Port Impedance50               0                50               0                

1.24             0.366340736698033 123.649591221153 0.922701328792015 -146.668109265638 0.922701328792014 -146.668109265638 0.366350596945069 123.896543764789 
! Gamma         !               0.0188301639912272 37.6608879382821 0.0188301235519882 37.6608878161486 
! Port Impedance50               0                50               0                

1.26             0.364495331425189 121.401106099758 0.923213830204916 -148.935544881786 0.923213830204915 -148.935544881785 0.364505614304369 121.655026319645 
! Gamma         !               0.0191339106499823 38.2683215825221 0.0191338746074553 38.2683214733926 
! Port Impedance50               0                50               0                

1.28             0.362402289583566 119.150927914411 0.923816882120367 -151.205305391371 0.923816882120366 -151.205305391371 0.362413001493033 119.411932528299 
! Gamma         !               0.0194376565168534 38.8757552274392 0.0194376247580713 38.8757551310206 
! Port Impedance50               0                50               0                

1.3              0.360062152903263 116.898791506384 0.924508518268518 -153.477680897707 0.924508518268518 -153.477680897707 0.360073303775749 117.167005731905 
! Gamma         !               0.0197414010433335 39.483188873557  0.0197413733730223 39.483188789311  
! Port Impedance50               0                50               0                

1.32             0.357475478798788 114.644440771966 0.925286562447943 -155.752954634132 0.925286562447941 -155.752954634132 0.357487082018286 114.919998861675 
! Gamma         !               0.0200451438526834 40.0906225212382 0.0200451200188308 40.0906224484539 
! Port Impedance50               0                50               0                

1.34             0.354642850568022 112.387629522794 0.926148629483582 -158.031402332132 0.92614862948358 -158.031402332132 0.354654922867609 112.670675371849 
! Gamma         !               0.0203488847050914 40.6980561707174 0.0203488644194032 40.6980561085728 
! Port Impedance50               0                50               0                

1.36             0.351564888505306 110.128122382525 0.927092126301174 -160.313291584865 0.927092126301175 -160.313291584865 0.351577449849388 110.418810217552 
! Gamma         !               0.0206526234686201 41.3054898221277 0.0206526064226877 41.3054897697347 
! Port Impedance50               0                50               0                

1.38             0.348242261896713 107.865695724857 0.928114253183157 -162.598881206019 0.928114253183156 -162.598881206019 0.348255335351172 108.164190883993 
! Gamma         !               0.020956360095098 41.9129234755225 0.0209563459729862 41.9129234319667 
! Port Impedance50               0                50               0                

1.4              0.344675701861043 105.600138658587 0.929212005275345 -164.888420584242 0.929212005275344 -164.888420584242 0.344689313455105 105.906618474357 
! Gamma         !               0.0212600946002243 42.5203571308951 0.021260083088092 42.5203570952616 
! Port Impedance50               0                50               0                

1.42             0.340866014994884 103.331254066132 0.930382174417772 -167.182149033719 0.93038217441777 -167.182149033718 0.340880193578819 103.645908864803 
! Gamma         !               0.0215638270472511 43.1277907881926 0.0215638178405277 43.127790759589  
! Port Impedance50               0                50               0                

1.44             0.336814097774049 101.058859702985 0.931621351376321 -169.480295141784 0.93162135137632 -169.480295141784 0.336828874877155 101.381893936398 
! Gamma         !               0.0218675575336959 43.7352244473285 0.0218675503422595 43.7352244249008 
! Port Impedance50               0                50               0                

1.46             0.332520951656941 98.7827893668476 0.932925928554691 -171.783076114866 0.932925928554692 -171.783076114866 0.332536361350599 99.1144228955475 
! Gamma         !               0.0221712861806054 44.3426581081958 0.0221712807323442 44.3426580911372 
! Port Impedance50               0                50               0                

1.48             0.32798769882781 96.5028941468545 0.934292103268178 -174.090697124384 0.934292103268177 -174.090697124384 0.32800377759884 96.8433636967131 
! Gamma         !               0.0224750131239694 44.9500917706696 0.0224750091670431 44.9500917582304 
! Port Impedance50               0                50               0                

1.5              0.32321559850965 94.2190437654181 0.935715881662019 -176.403350654642 0.935715881662019 -176.403350654642 0.323232385149585 94.5686045840199 
! Gamma         !               0.022778738507925 45.5575254346181 0.0227787358119999 45.5575254261082 
! Port Impedance50               0                50               0                

1.52             0.31820606376754 91.9311280279193 0.93719308335737 -178.721215855152 0.93719308335737 -178.721215855152 0.318223599283964 92.2900557719294 
! Gamma         !               0.0230824624794588 46.1649590999055 0.0230824608361379 46.1649590946969 
! Port Impedance50               0                50               0                

1.54             0.31296067871379 89.6390583989546 0.938719346907126 178.955542099785 0.938719346907125 178.955542099785 0.312979006270453 90.0076512897081 
! Gamma         !               0.0233861851843446 46.7723927663972 0.0233861844069828 46.7723927639241 
! Port Impedance50               0                50               0                

1.56             0.307481216016262 87.3427697283024 0.940290136141964 176.626772640998 0.940290136141963 176.626772640998 0.307500380909329 87.7213510202323 
! Gamma         !               0.0236899067641015 47.3798264339612 0.0236899066871591 47.3798264337185 
! Port Impedance50               0                50               0                

1.58             0.301769654601062 85.0422221554884 0.941900747483729 174.292340420227 0.941900747483729 174.292340420227 0.301789704279696 85.4311429711043 
! Gamma         !               0.0239936273537844 47.9872601024711 0.0239936278318459 47.987260104012  
! Port Impedance50               0                50               0                

1.6              0.295828197430362 82.7374032292345 0.943546318298723 171.952125907748 0.943546318298724 171.952125907748 0.295849181570756 83.1370458256225 
! Gamma         !               0.0242973470804512 48.5946937718078 0.0242973479870127 48.5946937747409 
! Port Impedance50               0                50               0                

1.62             0.289659289225772 80.4283302876268 0.9452218363574  169.606025967431 0.9452218363574  169.606025967431 0.289681259868964 80.8391118334855 
! Gamma         !               0.0246010660621749 49.2021274418602 0.0246010672882824 49.2021274458455 
! Port Impedance50               0                50               0                

1.64             0.283265633997718 78.1150531572876 0.946922150459361 167.253954404497 0.946922150459359 167.253954404497 0.283288645763025 78.5374301171242 
! Gamma         !               0.0249047844074865 49.8095611125258 0.0249047858602927 49.8095611172715 
! Port Impedance50               0                50               0                

1.66             0.276650212231808 75.7976572460852 0.948641982273302 164.895842480907 0.948641982273302 164.895842480907 0.276674322619551 76.2321304904364 
! Gamma         !               0.0252085022151608 50.4169947837112 0.0252085038164498 50.4169947889684 
! Port Impedance50               0                50               0                

1.68             0.269816297574481 73.4762671252968 0.950375939430714 162.53163939305  0.950375939430711 162.53163939305  0.269841567374197 73.9233879141174 
! Gamma         !               0.0255122195742622 51.0244284553318 0.0255122212589843 51.0244284608921 
! Port Impedance50               0                50               0                

1.7              0.262767472853231 71.1510507254165 0.952118529899544 160.161312706146 0.952118529899543 160.161312706146 0.262793966676601 71.611427748032  
! Gamma         !               0.0258159365643917 51.6318621273116 0.0258159382792375 51.6318621330021 
! Port Impedance50               0                50               0                

1.72             0.25550764526062 68.8222243075092 0.953864177649898 157.784848739659 0.953864177649898 157.784848739659 0.255535432222536 69.2965320093048 
! Gamma         !               0.0261196532560785 52.239295799583  0.0261196549581146 52.2392958052624 
! Port Impedance50               0                50               0                

1.74             0.248041060528007 66.4900584227277 0.955607239608134 155.40225289784  0.955607239608133 155.40225289784  0.248070215104636 66.9790469097332 
! Gamma         !               0.0264233697112759 52.8467294720869 0.026423371366658 52.8467294776423 
! Port Impedance50               0                50               0                

1.76             0.240372315913918 64.1548851413687 0.957342023878439 153.013549939555 0.957342023878437 153.013549939555 0.240402919013827 64.6593920340001 
! Gamma         !               0.0267270859839263 53.4541631447712 0.0267270875666992 53.4541631501142 
! Port Impedance50               0                50               0                

1.78             0.232506371834117 61.8171069271323 0.959062809192636 150.618784181544 0.959062809192635 150.618784181544 0.232538512128294 62.338071640673  
! Gamma         !               0.0270308021205664 54.0615968175913 0.0270308036115579 54.0615968226546 
! Port Impedance50               0                50               0                

1.8              0.22444856196687 59.4772076628143 0.960763865529269 148.218019629449 0.960763865529269 148.218019629449 0.224482337536673 60.0156887348095 
! Gamma         !               0.0273345181609516 54.6690304905083 0.0273345195467623 54.6690304952433 
! Port Impedance50               0                50               0                

1.82             0.216204601677994 57.1357665168238 0.962439475822777 145.811340031127 0.962439475822775 145.811340031127 0.216240122058087 57.6929627948965 
! Gamma         !               0.0276382341386824 55.2764641634893 0.0276382354107705 55.2764641678634 
! Port Impedance50               0                50               0                

1.84             0.207780594627674 54.7934756000576 0.964083958662577 143.398848847144 0.964083958662577 143.398848847144 0.207817983346035 55.3707523690407 
! Gamma         !               0.0279419500818184 55.8838978365073 0.0279419512356798 55.8838978405007 
! Port Impedance50               0                50               0                

1.86             0.199183037446314 52.4511627376124 0.965691691860942 140.980669133736 0.965691691860943 140.980669133736 0.19922243519835 53.0500842339399 
! Gamma         !               0.0282456660134718 56.4913315095392 0.0282456670479095 56.4913315131434 
! Port Impedance50               0                50               0                

1.88             0.190418822402649 50.1098212285925 0.967257136747676 138.556943334095 0.967257136747676 138.556943334095 0.190460391046002 50.7321915104873 
! Gamma         !               0.0285493819523714 57.0987651825669 0.028549382868851 57.0987651857824 
! Port Impedance50               0                50               0                

1.9              0.181495238037622 47.7706492843429 0.968774863029555 136.127832974455 0.968774863029554 136.127832974455 0.181539165665608 48.418564172175  
! Gamma         !               0.0288530979133946 57.7061988555753 0.028853098715479 57.7061988584097 
! Port Impedance50               0                50               0                

1.92             0.172419967809047 45.4351030748736 0.970239574033488 133.693518262194 0.970239574033487 133.693518262194 0.172466475264879 46.1110169629383 
! Gamma         !               0.0291568139080601 58.3136325285528 0.0291568146009207 58.3136325310198 
! Port Impedance50               0                50               0                

1.94             0.163201086895019 43.104969232401  0.971646132135017 131.254197584011 0.971646132135016 131.254197584011 0.163250436244214 43.8117821871599 
! Gamma         !               0.0294605299449852 58.9210662014906 0.0294605305349798 58.9210662036081 
! Port Impedance50               0                50               0                

1.96             0.153847057456938 40.7824657009496 0.972989584158481 128.81008690313  0.972989584158481 128.81008690313  0.153899563171181 41.5236387069373 
! Gamma         !               0.0297642460303014 59.5284998743827 0.0297642465246155 59.5284998761718 
! Port Impedance50               0                50               0                

1.98             0.144366722897966 38.4703847594961 0.9742651865225  126.361419055507 0.9742651865225  126.361419055507 0.144422766870389 39.2500947682217 
! Gamma         !               0.0300679621680339 60.1359335472246 0.0300679625743781 60.1359335487086 
! Port Impedance50               0                50               0                

2                0.134769302028557 36.1723002986808 0.975468429894674 123.908442946036 0.975468429894673 123.908442946036 0.134829354125467 36.9956527737415 
! Gamma         !               0.0303716783604416 60.7433672200137 0.0303716786867989 60.7433672212177 
! Port Impedance50               0                50               0                

2.02             0.125064384678527 33.8928756667194 0.976595063113105 121.451422646866 0.976595063113106 121.451422646866 0.125129031493575 34.7662022087567 
! Gamma         !               0.0306753946083215 61.3508008927492 0.0306753948627412 61.3508008936986 
! Port Impedance50               0                50               0                

2.04             0.11526193139369 31.6383338584761 0.977641116129744 118.99063640106  0.977641116129744 118.99063640106  0.11533191750259 32.5696192341523 
! Gamma         !               0.0309791109112795 61.9582345654308 0.030979111101709 61.9582345661512 
! Port Impedance50               0                50               0                

2.06             0.105372281874602 29.4171992703365 0.978602921731926 116.526375535971 0.978602921731926 116.526375535971 0.10544857076818 30.4167115862622 
! Gamma         !               0.0312828272679677 62.56566823806   0.031282827402121 62.5656682385767 
! Port Impedance50               0                50               0                

2.08             0.0954061807324049 27.2415130098586 0.979477135804079 114.058943291802 0.97947713580408 114.058943291802 0.0954900479174213 28.3227647484737 
! Gamma         !               0.0315865436762933 63.1731019106382 0.0315865437615484 63.1731019109758 
! Port Impedance50               0                50               0                

2.1              0.0853748372066673 25.1289155781223 0.980260755901353 111.588653571958 0.980260755901352 111.588653571958 0.0854680182849875 26.3101873805684 
! Gamma         !               0.0318902601335991 63.7805355831683 0.0318902601769216 63.78053558335   
! Port Impedance50               0                50               0                

2.12             0.0752900533084979 23.1064148167455 0.980951137920946 109.11582962277  0.980951137920946 109.11582962277  0.0753949911844057 24.4132872978708 
! Gamma         !               0.0321939766368179 64.3879692556531 0.0321939766447082 64.3879692557013 
! Port Impedance50               0                50               0                

2.14             0.0651644975914045 21.2176736427959 0.981546010675055 106.640802651171 0.981546010675054 106.640802651171 0.0652847805265039 22.6874821634025 
! Gamma         !               0.0324976931826064 64.9954029280952 0.0324976931610645 64.9954029280309 
! Port Impedance50               0                50               0                

2.16             0.0550123152860393 19.5383474985331 0.982043488191244 104.163910389745 0.982043488191244 104.163910389745 0.0551535139478455 21.2286027371578 
! Gamma         !               0.0328014097674556 65.6028366004983 0.0328014097219624 65.6028366003406 
! Port Impedance50               0                50               0                

2.18             0.0448506092396139 18.2121330104989 0.982442079591523 101.68549561932  0.982442079591523 101.68549561932  0.0450220419357674 20.2179687759173 
! Gamma         !               0.0331051263877844 66.2102702728662 0.0331051263232956 66.2102702726326 
! Port Impedance50               0                50               0                

2.2              0.0347035661678926 17.5493523487607 0.982740696429757 99.2059046598716 0.982740696429758 99.2059046598716 0.0349225581897033 20.0443075429911 
! Gamma         !               0.0334088430400166 66.8177039452019 0.0334088429609674 66.8177039449085 
! Port Impedance50               0                50               0                

2.22             0.024616760748089 18.3637576592935 0.982938657398017 96.7254858409901 0.982938657398017 96.72548584099   0.0249211306903374 21.7113439260835 
! Gamma         !               0.0337125597206422 67.4251376175087 0.0337125596309611 67.4251376171701 
! Port Impedance50               0                50               0                

2.24             0.0147293115820192 23.6294251285539 0.983035690345126 94.2445879634557 0.983035690345125 94.2445879634557 0.0152266796649451 28.7342177358155 
! Gamma         !               0.0340162764262667 68.0325712897903 0.0340162763293952 68.0325712894193 
! Port Impedance50               0                50               0                

2.26             0.00606293320655542 54.1740155260659 0.983031931584623 91.7635587636149 0.983031931584623 91.7635587636149 0.00717438797893531 61.0844938103674 
! Gamma         !               0.0343199931536497 68.6400049620496 0.034319993052567 68.6400049616574 
! Port Impedance50               0                50               0                

2.28             0.00800101874507474 143.198386469254 0.982927922503676 89.2827433922245 0.982927922503677 89.2827433922245 0.00886204894507549 136.499601485332 
! Gamma         !               0.0346237098997325 69.2474386342899 0.0346237097969841 69.2474386338864 
! Port Impedance50               0                50               0                

2.3              0.0172175458209301 161.260609135075 0.98272460351855 86.8024829192429 0.982724603518551 86.8024829192429 0.0176285273674493 157.389510837726 
! Gamma         !               0.0349274266616581 69.854872306514  0.0349274265593872 69.8548723061075 
! Port Impedance50               0                50               0                

2.32             0.0270350004713809 164.726315880302 0.982423305455356 84.3231128756883 0.982423305455356 84.3231128756883 0.027294862600415 162.290180875756 
! Gamma         !               0.035231143436785 70.4623059787241 0.0352311433367643 70.4623059783221 
! Port Impedance50               0                50               0                

2.34             0.0369237727627211 165.010618556862 0.982025738466167 81.8449618431798 0.982025738466167 81.8449618431797 0.0371116865173183 163.302763093653 
! Gamma         !               0.0355348602226927 71.0697396509232 0.0355348601263582 71.0697396505315 
! Port Impedance50               0                50               0                

2.36             0.0467874196120149 164.127317755092 0.98153397861971 79.3683501011208 0.981533978619709 79.3683501011208 0.0469336432094789 162.852239309007 
! Gamma         !               0.035838577017185 71.6771733231133 0.0358385769256682 71.6771733227368 
! Port Impedance50               0                50               0                

2.38             0.0565898553023449 162.691028644589 0.980950452332076 76.8935883407086 0.980950452332077 76.8935883407086 0.0567089671388773 161.701905796251 
! Gamma         !               0.0361422938182872 72.2846069952961 0.0361422937324482 72.2846069949389 
! Port Impedance50               0                50               0                

2.4              0.0663107373840684 160.950779098768 0.980277918825763 74.4209764540578 0.980277918825763 74.4209764540577 0.0664108445577513 160.164822942605 
! Gamma         !               0.0364460106242412 72.892040667474  0.0364460105446994 72.8920406671388 
! Port Impedance50               0                50               0                

2.42             0.0759354542230627 159.026423836425 0.979519450824527 71.9508024057434 0.979519450824527 71.9508024057434 0.0760215232210522 158.392567567701 
! Gamma         !               0.0367497274334973 73.4994743396482 0.0367497273606619 73.499474339337  
! Port Impedance50               0                50               0                

2.44             0.0854520230014059 156.982774280281 0.978678413706758 69.4833411930157 0.97867841370676 69.4833411930156 0.0855273159348608 156.467369072153 
! Gamma         !               0.0370534442447042 74.10690801182   0.0370534441788021 74.1069080115347 
! Port Impedance50               0                50               0                

2.46             0.0948499190410555 154.857967168975 0.977758443351046 67.0188538998287 0.977758443351046 67.0188538998286 0.094916694404874 154.437696988089 
! Gamma         !               0.037357161056698 74.714341683991  0.0373571609978003 74.7143416837321 
! Port Impedance50               0                50               0                

2.48             0.104119571540705 152.675933977559 0.976763422914553 64.5575868486971 0.976763422914553 64.557586848697  0.104179458904051 152.333990992253 
! Gamma         !               0.0376608778684895 75.3217753561618 0.0376608778165363 75.3217753559299 
! Port Impedance50               0                50               0                

2.5              0.113252125114073 150.452473361535 0.975697458787474 62.0997708532504 0.975697458787473 62.0997708532504 0.113306340122159 150.176349224713 
! Gamma         !               0.0379645946792509 75.9292090283335 0.0379645946340737 75.9292090281283 
! Port Impedance50               0                50               0                

2.52             0.122239318933261 148.198451960903 0.97456485596564 59.6456205732302 0.97456485596564 59.6456205732301 0.122288793802245 147.978591105417 
! Gamma         !               0.0382683114883032 76.5366427005068 0.0382683114496452 76.5366427003277 
! Port Impedance50               0                50               0                

2.54             0.131073421906711 145.921601480181 0.973370093078344 57.19533397258   0.973370093078343 57.1953339725799 0.131118888331268 145.750542587586 
! Gamma         !               0.0385720282951019 77.1440763726822 0.0385720282626367 77.1440763725284 
! Port Impedance50               0                50               0                

2.56             0.139747195902394 143.627581069254 0.972117797300087 54.7490918802326 0.972117797300087 54.7490918802325 0.139789239764485 143.499389000991 
! Gamma         !               0.038875745099224 77.7515100448604 0.0388757450725725 77.7515100447307 
! Port Impedance50               0                50               0                

2.58             0.14825387335618 141.320632972906 0.970812719363551 52.3070576522215 0.970812719363551 52.3070576522214 0.148292971996349 141.230510850118 
! Gamma         !               0.0391794619003554 78.3589437170414 0.0391794618791001 78.3589437169345 
! Port Impedance50               0                50               0                

2.6              0.156587142216557 139.004002189414 0.969459708877062 49.8693769328363 0.969459708877062 49.8693769328362 0.156623690524739 138.948019224091 
! Gamma         !               0.0394831786982781 78.9663773892256 0.0394831786819758 78.9663773891399 
! Port Impedance50               0                50               0                

2.62             0.164741134432365 136.680213633128 0.968063690133685 47.4361775117291 0.968063690133685 47.436177511729  0.16477546354315 136.65510963463  
! Gamma         !               0.039786895492858 79.5738110614134 0.0397868954810515 79.5738110613474 
! Port Impedance50               0                50               0                

2.64             0.172710415884649 134.351260252364 0.966629638581223 45.0075692731567 0.966629638581222 45.0075692731565 0.172742806846265 134.354302290883 
! Gamma         !               0.0400906122840344 80.1812447336045 0.0400906122762619 80.1812447335565 
! Port Impedance50               0                50               0                

2.66             0.180489976588813 132.01873381958  0.965162558103353 42.5836442329187 0.965162558103352 42.5836442329186 0.180520670533806 132.04760920549  
! Gamma         !               0.0403943290718089 80.7886784057992 0.0403943290676119 80.7886784057676 