! Touchstone file exported from HFSS 2018.2.0
!        File:           C:/Users/10024/OneDrive - The University of Nottingham Ningbo China/Year 4/Final Year Project/HFSS project/Passive_Resonator_Antenna.aedt
!        Generated:      4:18:30 下午  3月 11, 2022
!        Design:         SMA_Thru
!        Project:        Passive_Resonator_Antenna
!        Setup:          Setup1
!        Solution:       Sweep
!
! Variables:
!        MW = 1mm
!        ThruL = 40mm
!        g = 0.2mm
!        subH = 0.8mm
!        subX = 20mm
!        subY = 50mm
!        tapW = 1.992mm
!
# GHZ S MA R 50.000000
! Modal data exported
! Port[1] = SMA_CONNECTOR1_1:1
! Port[2] = SMA_CONNECTOR2_1:1
1                0.331799729186761 -26.8496817689649 0.939953848125838 -116.758264937474 0.939953848125838 -116.758264937474 0.33179627965936 -26.9632755013069 
! Gamma         !               0.0151858380091847 30.3716836111546 0.0151858380090984 30.3716836111689 
! Port Impedance50               0                50               0                

1.02             0.334439428062488 -29.0879537982661 0.938931428602581 -118.997183609487 0.93893142860258 -118.997183609487 0.334436386684191 -29.2059818645029 
! Gamma         !               0.0154901395832838 30.9791170496394 0.0154901843336016 30.9791172372584 
! Port Impedance50               0                50               0                

1.04             0.336895292776309 -31.3235741957826 0.937966164864093 -121.233443430669 0.937966164864092 -121.233443430669 0.33689263404039 -31.4456497356673 
! Gamma         !               0.0157942764442594 31.586550554641  0.0157943524221923 31.5865508766037 
! Port Impedance50               0                50               0                

1.06             0.339166923692715 -33.5567001847074 0.937059853291938 -123.467210016394 0.937059853291936 -123.467210016394 0.339164621474778 -33.6824351546147 
! Gamma         !               0.0160982810538265 32.1939841128145 0.0160983776658064 32.1939845265147 
! Port Impedance50               0                50               0                

1.08             0.341253930622214 -35.7874940211007 0.936214174341821 -125.698653807082 0.936214174341819 -125.698653807082 0.34125195847701 -35.9164984543683 
! Gamma         !               0.0164021804544529 32.8014177131094 0.016402289482792 32.8014181847703 
! Port Impedance50               0                50               0                

1.1              0.343155927293171 -38.016122681647 0.935430692007006 -127.927949786151 0.935430692007004 -127.927949786151 0.343154258746977 -38.1480039739293 
! Gamma         !               0.0167059970940245 33.4088513464049 0.0167061122422011 33.4088518495416 
! Port Impedance50               0                50               0                

1.12             0.344872526199402 -40.242757555595 0.934710853326487 -130.155277200089 0.934710853326484 -130.155277200089 0.344871135036163 -40.3771197683064 
! Gamma         !               0.0170097495308571 34.0162850051983 0.0170098660500164 34.0162855193294 
! Port Impedance50               0                50               0                

1.14             0.346403333833105 -42.4675741403108 0.934055987914558 -132.380819280462 0.934055987914556 -132.380819280462 0.3464021943727  -42.6040173156377 
! Gamma         !               0.0173134530362243 34.6237186833472 0.0173135674186401 34.6237191929089 
! Port Impedance50               0                50               0                

1.16             0.347747946311947 -44.6907517398232 0.933467307489867 -134.604762967584 0.933467307489865 -134.604762967584 0.347747033679124 -44.8288712210766 
! Gamma         !               0.0176171201090553 35.2311523758467 0.0176172298368403 35.2311528692856 
! Port Impedance50               0                50               0                

1.18             0.348905945408632 -46.9124731656735 0.932945905383607 -136.827298635512 0.932945905383605 -136.827298635512 0.3489052357913  -47.0518589169501 
! Gamma         !               0.0179207609153202 35.838586078643  0.0179208642547531 35.8385865476572 
! Port Impedance50               0                50               0                

1.2              0.349876894990877 -49.1329244393222 0.932492756008151 -139.048619817928 0.932492756008148 -139.048619817928 0.349876365886634 -49.2731603585528 
! Gamma         !               0.0182243836628153 36.4460197884772 0.0182244794963454 36.4460202273792 
! Port Impedance50               0                50               0                

1.22             0.350660337879587 -51.3522944953028 0.932108714269104 -141.268922934439 0.932108714269103 -141.268922934439 0.350659968329566 -51.4929577147915 
! Gamma         !               0.0185279949205264 37.053453502751  0.0185280826098963 37.0534539079407 
! Port Impedance50               0                50               0                

1.24             0.351255793132988 -53.5707748842532 0.931794514905542 -143.488407016717 0.931794514905539 -143.488407016717 0.351255563942248 -53.7114350527513 
! Gamma         !               0.0188315998904463 37.6608872194148 0.0188316791655124 37.6608875889405 
! Port Impedance50               0                50               0                

1.26             0.351662753764559 -55.7885594748939 0.931550771744971 -145.707273433893 0.931550771744968 -145.707273433893 0.351662647708502 -55.9287780151141 
! Gamma         !               0.0191352026386022 38.2683209368722 0.0191352735073656 38.2683212700665 
! Port Impedance50               0                50               0                

1.28             0.351880684902962 -58.0058441539666 0.93137797686151 -147.925725616518 0.931377976861507 -147.925725616518 0.351880686919371 -58.1451734892192 
! Gamma         !               0.0194388062911033 38.8757546539008 0.0194388689672309 38.8757549510822 
! Port Impedance50               0                50               0                

1.3              0.351909022402373 -60.2228265230821 0.931276499627642 -150.143968778392 0.931276499627639 -150.143968778392 0.351909119768967 -60.3608092664084 
! Gamma         !               0.0197424132002036 39.4831883695852 0.0197424680449559 39.4831886318108 
! Port Impedance50               0                50               0                

1.32             0.351747171912208 -62.4397055913811 0.931246585652008 -152.362209635511 0.931246585652006 -152.362209635511 0.351747354409698 -62.5758736901529 
! Gamma         !               0.0200460250846737 40.0906220832589 0.0200460725606794 40.0906223121249 
! Port Impedance50               0                50               0                

1.34             0.351394508415677 -64.656681462842 0.931288355597656 -154.580656121328 0.931288355597652 -154.580656121328 0.351394768476607 -64.7905552912997 
! Gamma         !               0.0203496431481789 40.6980557944581 0.0203496837829348 40.6980559919373 
! Port Impedance50               0                50               0                

1.36             0.350850376247118 -66.8739550170268 0.931401803877488 -156.799517097533 0.931401803877489 -156.799517097533 0.350850709090956 -67.0050424086182 
! Gamma         !               0.0206532681788466 41.3054895028822 0.0206533025361778 41.3054896711921 
! Port Impedance50               0                50               0                

1.38             0.350114089598738 -69.0917275819965 0.931586797225789 -159.019002059493 0.931586797225767 -159.019002059493 0.350114493353826 -69.2195227926366 
! Gamma         !               0.0209569006327592 41.9129232083593 0.0209569292907787 41.9129233498588 
! Port Impedance50               0                50               0                

1.4              0.349184933527966 -71.3102005980545 0.931843073146909 -161.239320835498 0.931843073146908 -161.239320835498 0.34918540934134 -71.4341831905817 
! Gamma         !               0.0212605407037304 42.5203569108204 0.0212605642380863 42.5203570279274 
! Port Impedance50               0                50               0                

1.42             0.348062165477069 -73.5295752709761 0.932170238245123 -163.460683278966 0.932170238245117 -163.460683278966 0.348062717613023 -73.6492089100107 
! Gamma         !               0.0215641883813938 43.1277906102751 0.0215642073527978 43.1277907054016 
! Port Impedance50               0                50               0                

1.44             0.346745017317188 -75.7500522132243 0.93256776644135 -165.683298952713 0.932567766441349 -165.683298952712 0.346745653246243 -75.8647833584913 
! Gamma         !               0.0218678434993467 43.7352243067928 0.0218678584445526 43.7352243822977 
! Port Impedance50               0                50               0                

1.46             0.345232697929685 -77.9718310717017 0.933034997085952 -167.907376804443 0.933034997085951 -167.907376804443 0.345233428409284 -78.0810875563986 
! Gamma         !               0.0221715057748484 44.3426580004888 0.0221715172003946 44.3426580586408 
! Port Impedance50               0                50               0                

1.48             0.34352439633747 -80.1951101404341 0.933571132978924 -170.133124832624 0.933571132978921 -170.133124832624 0.343525235486367 -80.2982996196294 
! Gamma         !               0.0224751748413637 44.9500916915094 0.0224751832195121 44.9500917344607 
! Port Impedance50               0                50               0                

1.5              0.34161928539958 -82.4200859565531 0.934175238311912 -172.360749741911 0.934175238311909 -172.360749741911 0.341620250767994 -82.5165942086282 
! Gamma         !               0.0227788502750553 45.5575253800232 0.0227788560414589 45.5575254097925 
! Port Impedance50               0                50               0                

1.52             0.339516526082075 -84.6469528778436 0.934846236549429 -174.590456587342 0.934846236549427 -174.590456587342 0.339517638720024 -84.7361419397369 
! Gamma         !               0.023082531616175 46.1649590662124 0.0230825351688939 46.1649590846722 
! Port Impedance50               0                50               0                

1.54             0.33721527231816 -86.8759026400285 0.935582908269602 -176.822448406583 0.935582908269599 -176.822448406583 0.337216556844679 -86.9571087543757 
! Gamma         !               0.0233862183861666 46.7723927502655 0.0233862200857163 46.772392759139  
! Port Impedance50               0                50               0                

1.56             0.334714676469884 -89.1071238918524 0.936383888988087 -179.056925839523 0.936383888988085 -179.056925839523 0.334716161146171 -89.1796552409908 
! Gamma         !               0.023689910101175 47.3798264323733 0.0236899102713543 47.3798264332302 
! Port Impedance50               0                50               0                

1.58             0.332013895403143 -91.3408017058831 0.937247666991949 178.705913265374 0.937247666991948 178.705913265374 0.332015612213078 -91.4039359040058 
! Gamma         !               0.0239936062825569 47.9872601127241 0.0239936052118467 47.9872601069836 
! Port Impedance50               0                50               0                

1.6              0.329112097186529 -93.577117062792 0.93817258121369 176.465874258485 0.938172581213687 176.465874258485 0.329114081928417 -93.6300983731892 
! Gamma         !               0.0242973064649005 48.5946937915003 0.0242973044082669 48.5946937804348 
! Port Impedance50               0                50               0                

1.62             0.326008468423187 -95.8162463066685 0.939156819179052 174.222766110639 0.939156819179048 174.222766110639 0.326010760817024 -95.8582825458417 
! Gamma         !               0.0246010102019835 49.2021274688775 0.0246010073829518 49.2021274536189 
! Port Impedance50               0                50               0                

1.64             0.32270222222298 -98.0583605686642 0.940198415065615 171.97640184924  0.940198415065615 171.97640184924  0.322704866038136 -98.0886196529968 
! Gamma         !               0.0249047170710389 49.8095611450213 0.0249047136839324 49.8095611265682 
! Port Impedance50               0                50               0                

1.66             0.319192606819995 -100.303625155966 0.941295247912779 169.726599009063 0.941295247912776 169.726599009063 0.319195650028758 -100.321231239332 
! Gamma         !               0.0252084266756387 50.4169948200868 0.0252084228878976 50.4169947993131 
! Port Impedance50               0                50               0                

1.68             0.315478914837661 -102.552198902673 0.942445040027084 167.473180097785 0.942445040027083 167.473180097785 0.315482409800871 -102.556228044669 
! Gamma         !               0.0255121386474579 51.0244284942193 0.0255121346019752 51.0244284718817 
! Port Impedance50               0                50               0                

1.7              0.311560493200494 -104.804233478681 0.943645355630344 165.215973076114 0.943645355630343 165.215973076114 0.311564496892275 -104.79370877269 
! Gamma         !               0.025815852647142 51.631862167551  0.0258158484645646 51.6318621442996 
! Port Impedance50               0                50               0                

1.72             0.307436753687678 -107.059872651999 0.94489359980128 162.954811852193 0.944893599801279 162.954811852194 0.307441327967299 -107.033758729696 
! Gamma         !               0.0261195683644622 52.2392958402038 0.0261195641454223 52.2392958165908 
! Port Impedance50               0                50               0                

1.74             0.303107184119279 -109.319251499149 0.946187017764582 160.689536789813 0.94618701776458 160.689536789813 0.303112396059347 -109.276448312781 
! Gamma         !               0.0264232855179175 52.8467295122886 0.0264232813451654 52.8467294887761 
! Port Impedance50               0                50               0                

1.76             0.298571360160961 -111.582495557217 0.947522694584193 158.419995229666 0.947522694584193 158.419995229666 0.298577282442548 -111.521831322425 
! Gamma         !               0.026727003853911 53.4541631839045 0.0267269997943315 53.4541631608749 
! Port Impedance50               0                50               0                

1.78             0.29382895772744 -113.849719909796 0.948897555320371 156.146042022731 0.94889755532037 156.146042022731 0.293835669114464 -113.769943069037 
! Gamma         !               0.0270307231456091 54.0615968551408 0.0270307192521099 54.0615968329042 
! Port Impedance50               0                50               0                

1.8              0.288879765958742 -116.121028197328 0.950308365712237 153.867540074552 0.950308365712236 153.867540074552 0.288887351866001 -116.020798236084 
! Gamma         !               0.0273344431915738 54.6690305260764 0.0273344395048382 54.6690305048788 
! Port Impedance50               0                50               0                

1.82             0.283723700736481 -118.3965115401  0.951751733449552 151.584360898956 0.951751733449551 151.584360898956 0.283732253908279 -118.274388453617 
! Gamma         !               0.0276381638142405 55.2764641967815 0.0276381603643406 55.2764641768125 
! Port Impedance50               0                50               0                

1.84             0.278360818699968 -120.676247359248 0.953224110098637 149.296385179456 0.953224110098637 149.296385179456 0.278370440019463 -120.53067952476 
! Gamma         !               0.0279418848582993 55.8838978673175 0.0279418816661729 55.8838978487159 
! Port Impedance50               0                50               0                

1.86             0.272791331713986 -122.960298077326 0.954721793748153 147.003503336279 0.954721793748153 147.003503336279 0.272802131167277 -122.789608233268 
! Gamma         !               0.0282456061890306 56.4913315377368 0.0282456032678212 56.4913315206001 
! Port Impedance50               0                50               0                

1.88             0.267015621731521 -125.248709675003 0.95624093244038 144.705616096678 0.95624093244038 144.705616096678 0.267027719555492 -125.051078641484 
! Gamma         !               0.0285493276906296 57.0987652080859 0.0285493250468976 57.0987651924727 
! Port Impedance50               0                50               0                

1.9              0.261034255985803 -127.541510073942 0.957777528452823 142.402635065838 0.957777528452822 142.402635065838 0.26104778403496 -127.314957763597 
! Gamma         !               0.0288530492645527 57.7061988784036 0.0288530468993612 57.7061988643411 
! Port Impedance50               0                50               0                

1.92             0.254848002436636 -129.838707307218 0.95932744349319 140.094483295409 0.959327443493189 140.094483295409 0.254863105812188 -129.581070466998 
! Gamma         !               0.0291567708279082 58.3136325487227 0.0291567687377904 58.313632536212  
! Port Impedance50               0                50               0                

1.94             0.248457845386423 -132.14028742707 0.960886404867966 137.781095846317 0.960886404867966 137.781095846317 0.248474684381127 -131.849193411993 
! Gamma         !               0.029460492311906 58.9210662190707 0.0294604904897243 58.9210662080896 
! Port Impedance50               0                50               0                

1.96             0.241865001171532 -134.446212084305 0.962450012680954 135.462420342252 0.962450012680954 135.462420342252 0.241883753597144 -134.119047783388 
! Gamma         !               0.0297642136603836 59.52849988947   0.0297642120960848 59.5284998799782 
! Port Impedance50               0                50               0                

1.98             0.235070933824977 -136.75641569262 0.964013748112963 133.138417509858 0.964013748112963 133.138417509858 0.235091797806632 -136.390290490953 
! Gamma         !               0.0300679348284135 60.1359335599385 0.0300679335096898 60.1359335518814 
! Port Impedance50               0                50               0                

2                0.228077370596897 -139.07080206247 0.965572982827501 130.809061701391 0.965572982827501 130.809061701391 0.228100567941776 -138.662503411682 
! Gamma         !               0.0303716557809992 60.7433672304904 0.0303716546938633 60.7433672238009 
! Port Impedance50               0                50               0                

2.02             0.220886317210382 -141.389240349527 0.967122989539534 128.474341395317 0.967122989539533 128.474341395317 0.220912097488828 -140.935180103603 
! Gamma         !               0.0306753764918628 61.3508009011364 0.0306753756211428 61.3508008957391 
! Port Impedance50               0                50               0                

2.04             0.213500072721896 -143.711560107611 0.968658953775311 126.134259670061 0.96865895377531 126.134259670061 0.213528718240658 -143.207709221707 
! Gamma         !               0.0309790969423241 61.9582345718843 0.0309790962720875 61.958234567697  
! Port Impedance50               0                50               0                

2.06             0.205921243848436 -146.037545158148 0.970175986840747 123.788834645903 0.970175986840747 123.788834645903 0.205953075752396 -145.479353586023 
! Gamma         !               0.0312828171202719 62.5656682427392 0.0312828166341856 62.5656682396756 
! Port Impedance50               0                50               0                

2.08             0.198152758617916 -148.366925876881 0.97166914000396 121.438099889846 0.971669140003959 121.438099889846 0.198188144434953 -147.749223451278 
! Gamma         !               0.0315865370192253 63.1731019137036 0.0315865367008559 63.1731019116751 
! Port Impedance50               0                50               0                

2.1              0.190197879195631 -150.699369337083 0.973133419884367 119.082104778112 0.973133419884366 119.082104778112 0.1902372422489  -150.016241947269 
! Gamma         !               0.0318902566374803 63.7805355847787 0.0318902564705447 63.7805355836955 
! Port Impedance50               0                50               0                

2.12             0.182060213738732 -153.034466510537 0.974563805026297 116.720914810881 0.974563805026297 116.720914810881 0.18210404500646 -152.279099804696 
! Gamma         !               0.0321939759773401 64.387969255964  0.0321939759459093 64.3879692557365 
! Port Impedance50               0                50               0                

2.14             0.173743727133376 -155.37171537056 0.975955263619451 114.354611873839 0.97595526361945 114.354611873839 0.173792600361239 -154.536195201332 
! Gamma         !               0.0324976950444244 64.9954029272574 0.0324976951330871 64.995402927798  
! Port Impedance50               0                50               0                

2.16             0.165252750476975 -157.710498195608 0.977302772311981 111.983294441164 0.97730277231198 111.983294441164 0.165307341678772 -156.785552608824 
! Gamma         !               0.0328014138470522 65.6028365986557 0.0328014140410428 65.6028365998788 
! Port Impedance50               0                50               0                

2.18             0.156591989182874 -160.050050519569 0.978601336044644 109.607077714693 0.978601336044643 109.607077714693 0.156653102160768 -159.024711471794 
! Gamma         !               0.0331051323956938 66.2102702701548 0.03310513268099 66.210270271978  
! Port Impedance50               0                50               0                

2.2              0.147766529610412 -162.389417811855 0.979846008816565 107.226093694227 0.979846008816564 107.226093694227 0.147835129884922 -161.250570683163 
! Gamma         !               0.0334088507024876 66.8177039417506 0.0334088510658811 66.8177039440951 
! Port Impedance50               0                50               0                

2.22             0.138781844165658 -164.727393732594 0.98103191527506 104.840491174203 0.981031915275058 104.840491174203 0.138859104896349 -163.459166842046 
! Gamma         !               0.0337125687808173 67.4251376134376 0.0337125692099608 67.4251376162287 
! Port Impedance50               0                50               0                

2.24             0.129643794888185 -167.062430024176 0.982154273003915 102.450435662346 0.982154273003913 102.450435662346 0.129731160285858 -165.645350818844 
! Gamma         !               0.0340162866449414 68.0325712852106 0.0340162871283776 68.0325712883779 
! Port Impedance50               0                50               0                

2.26             0.12035863565793 -169.392501484218 0.983208415366888 100.056109216375 0.983208415366885 100.056109216375 0.120457910581231 -167.802303675509 
! Gamma         !               0.034320004309676 68.6400049570633 0.0343200048368483 68.6400049605414 
! Port Impedance50               0                50               0                

2.28             0.110933013364869 -171.714897447999 0.984189814746408 97.6577101953728 0.984189814746406 97.6577101953727 0.111046493291655 -169.920790482877 
! Gamma         !               0.0346237217901205 69.2474386289902 0.0346237223513712 69.2474386327181 
! Port Impedance50               0                50               0                

2.3              0.101373968770013 -174.025888403788 0.985094106001839 95.2554529230819 0.985094106001836 95.2554529230818 0.101504634192696 -171.987970232833 
! Gamma         !               0.0349274391014261 69.8548723009853 0.0349274396879825 69.8548723049067 
! Port Impedance50               0                50               0                

2.32             0.0916889385417409 -176.32017082115 0.985917109957676 92.8495672610943 0.985917109957674 92.8495672610942 0.0918407563713056 -173.98542039903 
! Gamma         !               0.0352311562586009 70.4623059730425 0.0352311568625526 70.4623059771064 
! Port Impedance50               0                50               0                

2.34             0.0818857615340188 -178.58989666336 0.986654856720092 90.4402980906885 0.986654856720089 90.4402980906884 0.0820641729445686 -175.885698291398 
! Gamma         !               0.0355348732763484 71.0697396451566 0.0355348738906166 71.069739649316  
! Port Impedance50               0                50               0                

2.36             0.0719726959556181 179.177126278634 0.987303608610666 88.027904702934  0.987303608610663 88.0279047029339 0.0721854484262074 -177.646000913991 
! Gamma         !               0.0358385901689365 71.6771733173213 0.0358385907872381 71.6771733215343 
! Port Impedance50               0                50               0                

2.38             0.0619584629766465 177.001026359848 0.987859882499348 85.6126600975834 0.987859882499345 85.6126600975833 0.0622171250267148 -179.195612724118 
! Gamma         !               0.0361423069500914 72.2846069895313 0.0361423075668987 72.2846069937601 
! Port Impedance50               0                50               0                

2.4              0.051852357097195 174.917747547262 0.988320471314975 83.1948501922342 0.988320471314971 83.1948501922341 0.052175316643525 179.591297958946 
! Gamma         !               0.0364460236329164 72.8920406617815 0.0364460242434135 72.892040665993  
! Port Impedance50               0                50               0                

2.42             0.0416645436769973 172.998663534505 0.988682464511334 80.7747729442129 0.988682464511332 80.7747729442128 0.0420836441657751 178.962088140111 
! Gamma         !               0.0367497402298299 73.4994743340671 0.0367497408298673 73.4994743382316 
! Port Impedance50               0                50               0                

2.44             0.0314069818302565 171.40901266787  0.988943267269918 78.3527373886358 0.988943267269917 78.3527373886356 0.031984705313847 179.476677487127 
! Gamma         !               0.0370534567525221 74.1069080063831 0.0370534573385701 74.1069080104751 
! Port Impedance50               0                50               0                

2.46             0.0210971351048707 170.638570801875 0.989100618227401 75.9290625970793 0.989100618227396 75.9290625970792 0.0219830414146445 -177.293135626123 
! Gamma         !               0.0373571732119269 74.7143416787253 0.0373571737810287 74.7143416827229 
! Port Impedance50               0                50               0                

2.48             0.010783270074422 173.057218990151 0.989152605526442 73.5040765622594 0.989152605526436 73.5040765622593 0.0124900029064618 -165.043704090619 
! Gamma         !               0.0376608896182065 75.3217753510897 0.0376608901679315 75.3217753549742 
! Port Impedance50               0                50               0                

2.5              0.00185717235306786 -114.972336670295 0.989097681002645 71.0781150150393 0.98909768100264 71.0781150150392 0.00668851608931785 -110.778927306428 
! Gamma         !               0.0379646059807483 75.9292090234722 0.0379646065091464 75.9292090272282 
! Port Impedance50               0                50               0                

2.52             0.0104526918482791 -31.8421427328291 0.98893467233821 68.6515201809415 0.988934672338205 68.6515201809414 0.0123335540576131 -55.0806635562368 
! Gamma         !               0.0382683223081705 76.5366426958695 0.0382683228137273 76.5366426994844 
! Port Impedance50               0                50               0                

2.54             0.0208691220450158 -29.1650124445652 0.988662793033824 66.2246394841291 0.988662793033819 66.2246394841289 0.0219077176249653 -42.4334172700057 
! Gamma         !               0.0385720386083359 77.1440763682784 0.03857203908993 77.1440763717421 
! Port Impedance50               0                50               0                

2.56             0.0313557033454181 -29.8889264916114 0.988281650074253 63.7978242075007 0.98828165007425 63.7978242075006 0.0320807067051959 -39.1056489250653 
! Gamma         !               0.0388757548883724 77.751510040696  0.0388757553452341 77.7515100440011 
! Port Impedance50               0                50               0                

2.58             0.0418605601520232 -31.4652983400502 0.987791249189479 61.3714281181324 0.987791249189473 61.3714281181322 0.0424246340415149 -38.5563603272676 
! Gamma         !               0.0391794711546983 78.3589437131199 0.0391794715863706 78.3589437162606 
! Port Impedance50               0                50               0                

2.6              0.0523648981817472 -33.3815718345371 0.987191997641628 58.94580606775   0.987191997641621 58.9458060677498 0.0528314155367431 -39.1712177533449 
! Gamma         !               0.0394831874130525 78.9663773855471 0.0394831878193538 78.9663773885204 
! Port Impedance50               0                50               0                

2.62             0.0628554430448227 -35.4668038551328 0.986484704497926 56.5213125782509 0.986484704497922 56.5213125782507 0.0632565430438414 -40.3786393706244 
! Gamma         !               0.0397869036685266 79.5738110579762 0.0397869040495167 79.5738110607801 
! Port Impedance50               0                50               0                

2.64             0.0733205229167735 -37.6476183553886 0.985670578380469 54.0983004224789 0.985670578380467 54.0983004224786 0.0736746782997318 -41.9270530700882 
! Gamma         !               0.0400906199256008 80.181244730405  0.0400906202815482 80.1812447330394 
! Port Impedance50               0                50               0                

2.66             0.083749115891757 -39.8871907658175 0.984751222714705 51.6771192105058 0.9847512227147  51.6771192105057 0.0840678909763257 -43.6887827973412 