! Touchstone file exported from HFSS 2018.2.0
!        File:           C:/Users/10024/OneDrive - The University of Nottingham Ningbo China/Year 4/Final Year Project/HFSS project/Patch-1.aedt
!        Generated:      5:51:47 下午  3月 10, 2022
!        Design:         SMA_Reflect_Short
!        Project:        Patch-1
!        Setup:          Setup1
!        Solution:       Sweep
!
! Variables:
!        MW = 1.992mm
!        ThruL = 5mm
!        g = 0.2mm
!        subH = 0.8mm
!        subX = 20mm
!        subY = 15mm
!
# GHZ S MA R 50.000000
! Modal data exported
! Port[1] = SMA_CONNECTOR1_1:1
! Port[2] = SMA_CONNECTOR2_1:1
1                0.999699545462267 137.692703492784 3.81040803058178E-05 -73.4229099552823 3.8104080305818E-05 -73.422909955283 0.999319366950856 -43.0036517046821 
! Gamma         !               0.0151858380091474 30.3716836111913 0.0151858380091244 30.3716836112037 
! Port Impedance50               0                50               0                

1.02             0.999688336386004 136.844476598308 3.98652930565161E-05 -74.7925358452563 3.98652930565164E-05 -74.792535845257 0.999307344536641 -43.8617876507727 
! Gamma         !               0.015473594163364 30.9791173073429 0.0154735941633349 30.9791173073519 
! Port Impedance50               0                50               0                

1.04             0.999676700686069 135.99612387546  4.16779153814854E-05 -76.157592171371 4.16779153814856E-05 -76.1575921713721 0.999295337810156 -44.7198075750454 
! Gamma         !               0.0157630434272434 31.5865510009359 0.0157630434272085 31.586551000942  
! Port Impedance50               0                50               0                

1.06             0.999664640677174 135.147642652689 4.3542848184313E-05 -77.5180800333839 4.35428481843133E-05 -77.5180800333841 0.999283346464067 -45.5777091209236 
! Gamma         !               0.0160540771301678 32.1939846921412 0.0160540771301277 32.1939846921446 
! Port Impedance50               0                50               0                

1.08             0.999652158606147 134.299030248047 4.54610046721874E-05 -78.8740032596258 4.54610046721875E-05 -78.8740032596268 0.999271370248291 -46.4354899285006 
! Gamma         !               0.0163465911277937 32.8014183811202 0.0163465911277487 32.8014183811214 
! Port Impedance50               0                50               0                

1.1              0.999639256643498 133.450283969129 4.74333102373368E-05 -80.2253682962467 4.74333102373369E-05 -80.2253682962475 0.999259408976037 -47.2931476346066 
! Gamma         !               0.0166404857448434 33.4088520680269 0.0166404857447939 33.408852068026  
! Port Impedance50               0                50               0                

1.12             0.999625936876767 132.601401113026 4.94607023461082E-05 -81.57218409782  4.9460702346108E-05 -81.5721840978208 0.999247462528034 -48.1506798728822 
! Gamma         !               0.0169356657079603 34.0162857530069 0.0169356657079067 34.0162857530043 
! Port Impedance50               0                50               0                

1.14             0.999612201305424 131.752378966289 5.15441304356654E-05 -82.9144620194326 5.15441304356654E-05 -82.9144620194336 0.999235530855155 -49.0080842738588 
! Gamma         !               0.0172320400696569 34.6237194361994 0.0172320400695996 34.6237194361953 
! Port Impedance50               0                50               0                

1.16             0.99959805183709 130.903214804896 5.36845558182732E-05 -84.2522157103831 5.3684555818273E-05 -84.2522157103838 0.99922361397969 -49.8653584650464 
! Gamma         !               0.0175295221243489 35.2311531177353 0.0175295221242883 35.2311531177299 
! Port Impedance50               0                50               0                

1.18             0.999583490284901 130.053905894231 5.58829515931002E-05 -85.585461009622 5.58829515931004E-05 -85.5854610096221 0.999211711995454 -50.7225000710282 
! Gamma         !               0.0178280293174249 35.8385867977396 0.0178280293173614 35.838586797733  
! Port Impedance50               0                50               0                

1.2              0.999568518365826 129.204449489068 5.81403025654979E-05 -86.914215843036 5.81403025654979E-05 -86.9142158430369 0.999199825066908 -51.5795067135619 
! Gamma         !               0.0181274831482588 36.4460204763301 0.0181274831481926 36.4460204763228 
! Port Impedance50               0                50               0                

1.22             0.999553137699814 128.354842833573 6.04576051736603E-05 -88.2385001227002 6.04576051736602E-05 -88.2385001227009 0.999187953427447 -52.4363760116893 
! Gamma         !               0.0184278090680246 37.0534541536191 0.0184278090679561 37.053454153611  
! Port Impedance50               0                50               0                

1.24             0.999537349809618 127.5050831613   6.28358674225884E-05 -89.5583356481814 6.28358674225881E-05 -89.5583356481823 0.999176097376989 -53.2931055818515 
! Gamma         !               0.0187289363731271 37.6608878297122 0.0187289363730566 37.6608878297037 
! Port Impedance50               0                50               0                

1.26             0.999521156121183 126.655167695211 6.52761088252589E-05 -90.8737460099985 6.52761088252586E-05 -90.8737460099992 0.999164257278997 -54.1496930380129 
! Gamma         !               0.0190307980950117 38.2683215047097 0.0190307980949397 38.2683215047009 
! Port Impedance50               0                50               0                

1.28             0.999504557964506 125.805093647698 6.77793603508931E-05 -92.1847564953129 6.77793603508928E-05 -92.1847564953135 0.999152433557018 -55.006135991791 
! Gamma         !               0.0193333308870707 38.8757551787061 0.0193333308869974 38.8757551786967 
! Port Impedance50               0                50               0                

1.3              0.999487556574885 124.95485822061  7.03466643802161E-05 -93.4913939959236 7.03466643802159E-05 -93.4913939959243 0.99914062669085 -55.8624320525947 
! Gamma         !               0.019636474909311 39.4831888517903 0.0196364749092365 39.4831888517809 
! Port Impedance50               0                50               0                

1.32             0.999470153094445 124.1044586053   7.29790746675803E-05 -94.7936869186266 7.29790746675799E-05 -94.7936869186272 0.999128837212408 -56.7185788277693 
! Gamma         !               0.0199401737114046 40.0906225240468 0.0199401737113295 40.0906225240374 
! Port Impedance50               0                50               0                

1.34             0.999452348573928 123.253891982673 7.56776563098379E-05 -96.0916650979912 7.5677656309838E-05 -96.0916650979916 0.999117065701353 -57.5745739227486 
! Gamma         !               0.0202443741146944 40.6980561955546 0.0202443741146188 40.6980561955452 
! Port Impedance50               0                50               0                

1.36             0.999434143974645 122.403155523246 7.84434857218245E-05 -97.3853597115988 7.84434857218244E-05 -97.3853597115993 0.999105312780561 -58.4304149412153 
! Gamma         !               0.0205490260936776 41.3054898663882 0.0205490260936018 41.305489866379  
! Port Impedance50               0                50               0                

1.38             0.999415540170571 121.55224638722  8.12776506183228E-05 -98.6748031977694 8.12776506183225E-05 -98.6748031977703 0.999093579111456 -59.2860994852677 
! Gamma         !               0.0208540826574532 41.9129235366176 0.0208540826573774 41.9129235366087 
! Port Impedance50               0                50               0                

1.4              0.999396537950523 120.701161724559 8.41812500023718E-05 -99.9600291758095 8.4181250002371E-05 -99.9600291758102 0.999081865389286 -60.1416251555943 
! Gamma         !               0.0211594997315675 42.5203572063081 0.0211594997314919 42.5203572062994 
! Port Impedance50               0                50               0                

1.42             0.999377138020394 119.849898675078 8.71553941597731E-05 -101.241072368786 8.7155394159773E-05 -101.241072368787 0.999070172338347 -60.9969895516564 
! Gamma         !               0.0214652360406559 43.1277908755212 0.0214652360405807 43.127790875513  
! Port Impedance50               0                50               0                

1.44             0.999357341005411 118.998454368546 9.02012046596662E-05 -102.517968528847 9.02012046596656E-05 -102.517968528847 0.999058500707204 -61.8521902718768 
! Gamma         !               0.0217712529922376 43.7352245443145 0.0217712529921631 43.7352245443066 
! Port Impedance50               0                50               0                

1.46             0.999337147452394 118.146825924792 9.33198143610073E-05 -103.79075436507 9.33198143610062E-05 -103.79075436507 0.999046851263942 -62.707224913837 
! Gamma         !               0.0220775145619828 44.3426582127417 0.0220775145619092 44.3426582127342 
! Port Impedance50               0                50               0                

1.48             0.999316557831994 117.295010453831 9.65123674248286E-05 -105.059467473857 9.65123674248278E-05 -105.059467473857 0.999035224791449 -63.5620910744816 
! Gamma         !               0.0223839871807344 44.9500918808523 0.0223839871806617 44.9500918808452 
! Port Impedance50               0                50               0                

1.5              0.999295572540891 116.443005055987 9.97800193321187E-05 -106.324146271832 9.97800193321183E-05 -106.324146271832 0.999023622082774 -64.4167863503298 
! Gamma         !               0.0226906396235331 45.5575255486934 0.0226906396234616 45.5575255486867 
! Port Impedance50               0                50               0                

1.52             0.999274191903937 115.590806822041 0.000103123936907179 -107.584829931249 0.000103123936907179 -107.584829931249 0.99901204393656 -65.2713083376949 
! Gamma         !               0.0229974429008667 46.1649592163082 0.0229974429007965 46.1649592163021 
! Port Impedance50               0                50               0                

1.54             0.99925241617624 114.738412833377 0.000106545298346319 -108.841558317863 0.000106545298346317 -108.841558317864 0.999000491152567 -66.1256546329103 
! Gamma         !               0.0233043701523274 46.7723928837362 0.0233043701522587 46.7723928837305 
! Port Impedance50               0                50               0                

1.56             0.999230245545174 113.885820162148 0.000110045293251731 -110.094371931247 0.00011004529325173 -110.094371931248 0.998988964527303 -66.9798228325643 
! Gamma         !               0.023611396542838 47.3798265510149 0.0236113965427708 47.3798265510098 
! Port Impedance50               0                50               0                

1.58             0.999207680132306 113.033025871446 0.000113625122670419 -111.343311847517 0.000113625122670418 -111.343311847518 0.99897746484977 -67.8338105337409 
! Gamma         !               0.0239184991615835 47.9872602181785 0.023918499161518 47.9872602181738 
! Port Impedance50               0                50               0                

1.6              0.999184719995247 112.180027015489 0.000117285999138017 -112.588419664422 0.000117285999138017 -112.588419664422 0.998965992897314 -68.6876153342686 
! Gamma         !               0.0242256569237549 48.5946938852584 0.0242256569236912 48.5946938852543 
! Port Impedance50               0                50               0                

1.62             0.999161365129402 111.326820639811 0.000121029146727379 -113.829737448754 0.000121029146727378 -113.829737448754 0.998954549431621 -69.541234832977 
! Gamma         !               0.0245328504751956 49.2021275522835 0.0245328504751336 49.2021275522801 
! Port Impedance50               0                50               0                

1.64             0.999137615469649 110.473403781471 0.000124855801101772 -115.067307686048 0.000124855801101771 -115.067307686048 0.99894313519482 -70.3946666299596 
! Gamma         !               0.0248400621000164 49.8095612192807 0.0248400620999563 49.8095612192777 
! Port Impedance50               0                50               0                

1.66             0.999113470891905 109.619773469271 0.000128767209572568 -116.301173232501 0.000128767209572567 -116.301173232502 0.998931750905726 -71.2479083268454 
! Gamma         !               0.0251472756312305 50.4169948862739 0.0251472756311725 50.4169948862714 
! Port Impedance50               0                50               0                

1.68             0.999088931214622 108.765926723979 0.000132764631161274 -117.531377269073 0.000132764631161273 -117.531377269073 0.998920397256216 -72.1009575270761 
! Gamma         !               0.0254544763644392 51.0244285532851 0.0254544763643832 51.0244285532831 
! Port Impedance50               0                50               0                

1.7              0.999063996200181 107.911860558572 0.000136849336665773 -118.757963257708 0.000136849336665772 -118.757963257709 0.998909074907728 -72.953811836192 
! Gamma         !               0.0257616509745847 51.6318622203346 0.0257616509745309 51.6318622203329 
! Port Impedance50               0                50               0                

1.72             0.999038665556201 107.057571978487 0.000141022608730651 -119.980974899638 0.000141022608730651 -119.980974899638 0.998897784487902 -73.8064688621243 
! Gamma         !               0.0260687874357765 52.2392958874402 0.0260687874357248 52.239295887439  
! Port Impedance50               0                50               0                

1.74             0.999012938936762 106.20305798188  0.000145285741921481 -121.200456095678 0.00014528574192148 -121.200456095678 0.998886526587346 -74.6589262154945 
! Gamma         !               0.026375874944178 52.846729554618  0.0263758749441285 52.8467295546173 
! Port Impedance50               0                50               0                

1.76             0.998986815943544 105.348315559901 0.000149640042802923 -122.416450908502 0.000149640042802922 -122.416450908502 0.998875301756536 -75.5111815099218 
! Gamma         !               0.0266829038439361 53.4541632218829 0.0266829038438888 53.4541632218825 
! Port Impedance50               0                50               0                

1.78             0.998960296126886 104.493341696982 0.000154086830020548 -123.629003526793 0.000154086830020547 -123.629003526794 0.998864110502841 -76.3632323623361 
! Gamma         !               0.0269898655561219 54.0615968892476 0.0269898655560769 54.0615968892476 
! Port Impedance50               0                50               0                

1.8              0.998933378986765 103.638133371129 0.000158627434386226 -124.83815823125 0.000158627434386225 -124.838158231251 0.998852953287676 -77.2150763932998 
! Gamma         !               0.0272967525106446 54.6690305567234 0.0272967525106018 54.6690305567238 
! Port Impedance50               0                50               0                

1.82             0.998906063973708 102.782687554233 0.000163263198967 -126.043959362362 0.000163263198966999 -126.043959362362 0.998841830523783 -78.0667112273345 
! Gamma         !               0.0276035580810912 55.2764642243205 0.0276035580810506 55.2764642243213 
! Port Impedance50               0                50               0                

1.84             0.998878350489623 101.927001212392 0.000167995479177302 -127.246451289907 0.000167995479177302 -127.246451289907 0.998830742572629 -78.9181344932568 
! Gamma         !               0.0279102765224394 55.8838978920475 0.0279102765224011 55.8838978920485 
! Port Impedance50               0                50               0                

1.86             0.99885023788857 101.07107130624  0.000172825642874415 -128.445678384113 0.000172825642874414 -128.445678384113 0.998819689741927 -79.769343824519 
! Gamma         !               0.028216902911585 56.4913315599117 0.0282169029115489 56.4913315599131 
! Port Impedance50               0                50               0                

1.88             0.998821725477472 100.214894791293 0.000177755070457061 -129.641684988422 0.000177755070457061 -129.641684988423 0.998808672283273 -80.6203368595577 
! Gamma         !               0.0285234330906194 57.0987652279198 0.0285234330905856 57.0987652279214 
! Port Impedance50               0                50               0                

1.9              0.998792812516763 99.3584686183081 0.000182785154967031 -130.834515393794 0.00018278515496703 -130.834515393794 0.998797690389896 -81.4711112421493 
! Gamma         !               0.0288298636127905 57.7061988960766 0.028829863612759 57.7061988960786 
! Port Impedance50               0                50               0                

1.92             0.99876349822098 98.5017897336464 0.000187917302193718 -132.024213814501 0.000187917302193717 -132.024213814502 0.998786744194521 -82.3216646217708 
! Gamma         !               0.0291361916910743 58.3136325643867 0.0291361916910449 58.3136325643887 
! Port Impedance50               0                50               0                

1.94             0.998733781759313 97.6448550796577 0.000193152930781488 -133.210824365351 0.000193152930781487 -133.210824365351 0.998775833767339 -83.1719946539684 
! Gamma         !               0.0294424151492855 58.9210662328531 0.0294424151492582 58.9210662328552 
! Port Impedance50               0                50               0                

1.96             0.998703662256092 96.787661595072  0.000198493472339771 -134.394391040281 0.000198493472339771 -134.394391040282 0.99876495911408 -84.0220990007323 
! Gamma         !               0.0297485323756492 59.5284999014783 0.0297485323756242 59.5284999014806 
! Port Impedance50               0                50               0                

1.98             0.998673138791258 95.9302062154048 0.000203940371555786 -135.574957692279 0.000203940371555785 -135.574957692279 0.998754120174195 -84.8719753308779 
! Gamma         !               0.0300545422787584 60.1359335702642 0.0300545422787355 60.1359335702667 
! Port Impedance50               0                50               0                

2                0.998642210400768 95.072485873374  0.000209495086309798 -136.752568014554 0.000209495086309798 -136.752568014554 0.998743316819131 -85.7216213204326 
! Gamma         !               0.0303604442458365 60.7433672392117 0.0303604442458157 60.7433672392143 
! Port Impedance50               0                50               0                

2.02             0.998610876076983 94.2144974993304 0.000215159087792836 -137.927265522936 0.000215159087792835 -137.927265522936 0.998732548850706 -86.5710346530302 
! Gamma         !               0.030666238103228 61.350800908321  0.0306662381032092 61.3508009083235 
! Port Impedance50               0                50               0                

2.04             0.998579134769019 93.3562380216991 0.000220933860626758 -139.09909353942 0.000220933860626758 -139.09909353942 0.998721815999576 -87.4202130203101 
! Gamma         !               0.0309719240790362 61.9582345775919 0.0309719240790195 61.9582345775944 
! Port Impedance50               0                50               0                

2.06             0.998546985383074 92.4977043674346 0.000226820902986616 -140.268095176832 0.000226820902986616 -140.268095176832 0.998711117923791 -88.2691541223233 
! Gamma         !               0.0312775027678305 62.5656682470234 0.0312775027678157 62.5656682470261 
! Port Impedance50               0                50               0                

2.08             0.99851442678273 91.6388934624877 0.000232821726725201 -141.434313324544 0.0002328217267252 -141.434313324544 0.998700454207444 -89.1178556679444 
! Gamma         !               0.0315829750973432 63.1731019166142 0.0315829750973302 63.1731019166169 
! Port Impedance50               0                50               0                

2.1              0.998481457789232 90.779802232285  0.000238937857499711 -142.597790635212 0.000238937857499711 -142.597790635212 0.998689824359405 -89.966315375289 
! Gamma         !               0.031888342297078 63.7805355863627 0.031888342297067 63.7805355863654 
! Port Impedance50               0                50               0                

2.12             0.998448077181765 89.9204276022211 0.000245170834900473 -143.758569512468 0.000245170834900472 -143.758569512469 0.998679227812127 -90.814530972137 
! Gamma         !               0.0321936058687548 64.3879692562665 0.0321936058687457 64.3879692562691 
! Port Impedance50               0                50               0                

2.14             0.998414283697697 89.0607664981633 0.000251522212581615 -144.916692099548 0.000251522212581614 -144.916692099548 0.998668663920547 -91.6625001963622 
! Gamma         !               0.0324987675585121 64.995402926323  0.0324987675585047 64.9954029263255 
! Port Impedance50               0                50               0                

2.16             0.998380076032831 88.2008158469691 0.000257993558393649 -146.072200268778 0.000257993558393649 -146.072200268778 0.998658131961058 -92.5102207963662 
! Gamma         !               0.0328038293307948 65.6028365965293 0.0328038293307892 65.6028365965316 
! Port Impedance50               0                50               0                

2.18             0.998345452841644 87.3405725770158 0.000264586454517878 -147.225135611911 0.000264586454517878 -147.225135611911 0.998647631130552 -93.3576905315188 
! Gamma         !               0.0331087933438535 66.2102702668822 0.0331087933438496 66.2102702668844 
! Port Impedance50               0                50               0                

2.2              0.998310412737523 86.4800336187434 0.000271302497602561 -148.375539431249 0.00027130249760256 -148.375539431249 0.998637160545537 -94.2049071726035 
! Gamma         !               0.0334136619267839 66.8177039373781 0.0334136619267816 66.8177039373801 
! Port Impedance50               0                50               0                

2.22             0.998274954292998 85.6191959052096 0.000278143298900777 -149.52345273152 0.000278143298900776 -149.52345273152 0.998626719241334 -95.0518685022679 
! Gamma         !               0.0337184375580365 67.4251376080135 0.0337184375580358 67.4251376080154 
! Port Impedance50               0                50               0                

2.24             0.998239076039987 84.7580563726579 0.000285110484409922 -150.668916212471 0.000285110484409922 -150.668916212471 0.99861630617133 -95.8985723154794 
! Gamma         !               0.0340231228453291 68.0325712787844 0.0340231228453299 68.0325712787861 
! Port Impedance50               0                50               0                

2.26             0.998202776470039 83.8966119610984 0.000292205695012781 -151.81197026214 0.00029220569501278 -151.811970262141 0.998605920206299 -96.7450164199858 
! Gamma         !               0.0343277205068962 68.6400049496866 0.0343277205068984 68.6400049496881 
! Port Impedance50               0                50               0                

2.28             0.998166054034589 83.0348596149004 0.00029943058662011 -152.952654950775 0.000299430586620109 -152.952654950775 0.998595560133794 -97.5911986367814 
! Gamma         !               0.0346322333540104 69.2474386207162 0.034632233354014 69.2474386207174 
! Port Impedance50               0                50               0                

2.3              0.998128907145219 82.172796283399  0.000306786830314682 -154.091010025348 0.000306786830314682 -154.091010025349 0.99858522465759 -98.4371168005765 
! Gamma         !               0.0349366642747152 69.8548722918686 0.0349366642747202 69.8548722918696 
! Port Impedance50               0                50               0                

2.32             0.998091334173942 81.3104189215135 0.00031427611249674 -155.227074904669 0.000314276112496739 -155.227074904669 0.998574912397196 -99.282768760273 
! Gamma         !               0.0352410162187079 70.4623059631396 0.0352410162187142 70.4623059631404 
! Port Impedance50               0                50               0                

2.34             0.998053333453492 80.4477244903791 0.000321900135030792 -156.360888675018 0.000321900135030791 -156.360888675019 0.998564621887416 -100.128152379443 
! Gamma         !               0.0355452921833157 71.0697396345245 0.0355452921833232 71.069739634525  
! Port Impedance50               0                50               0                

2.36             0.998014903277642 79.5847099579899 0.000329660615393721 -157.492490086315 0.000329660615393722 -157.492490086315 0.998554351577976 -100.973265536815 
! Gamma         !               0.0358494952005074 71.6771733060188 0.0358494952005161 71.677173306019  
! Port Impedance50               0                50               0                

2.38             0.99797604190153 78.7213722998566 0.000337559286824147 -158.621917548757 0.000337559286824147 -158.621917548757 0.998544099833192 -101.818106126758 
! Gamma         !               0.0361536283248893 72.2846069776179 0.0361536283248991 72.2846069776179 
! Port Impedance50               0                50               0                

2.4              0.99793674754202 77.8577084996753 0.000345597898472986 -159.749209129923 0.000345597898472985 -159.749209129923 0.998533864931698 -102.662672059776 
! Gamma         !               0.0364576946226308 72.8920406493174 0.0364576946226417 72.892040649317  
! Port Impedance50               0                50               0                

2.42             0.997897018378082 76.9937155500089 0.00035377821555519 -160.874402552309 0.000353778215555191 -160.874402552309 0.998523645066231 -103.506961263006 
! Gamma         !               0.0367616971612714 73.4994743211125 0.0367616971612833 73.4994743211119 
! Port Impedance50               0                50               0                

2.44             0.997856852551191 76.1293904529822 0.000362102019502599 -161.99753519126 0.0003621020195026 -161.99753519126 0.998513438343442 -104.350971680713 
! Gamma         !               0.0370656390003606 74.1069079929988 0.0370656390003736 74.1069079929979 
! Port Impedance50               0                50               0                

2.46             0.997816248165772 75.2647302209887 0.000370571108117872 -163.118644073295 0.000370571108117873 -163.118644073295 0.998503242783781 -105.1947012748  
! Gamma         !               0.0373695231828851 74.7143416649715 0.0373695231828989 74.7143416649701 
! Port Impedance50               0                50               0                

2.48             0.99777520328966 74.3997318774095 0.000379187295729468 -164.237765874781 0.000379187295729469 -164.237765874781 0.998493056321407 -106.038148025309 
! Gamma         !               0.0376733527274375 75.3217753370262 0.0376733527274523 75.3217753370245 
! Port Impedance50               0                50               0                

2.5              0.997733715954589 73.5343924573455 0.000387952413347624 -165.354936920943 0.000387952413347624 -165.354936920943 0.998482876804155 -106.881309930937 
! Gamma         !               0.0379771306210877 75.9292090091585 0.0379771306211032 75.9292090091564 
! Port Impedance50               0                50               0                

2.52             0.997691784156731 72.668709008362  0.000396868308821309 -166.470193185191 0.000396868308821309 -166.470193185191 0.998472701993531 -107.724185009546 
! Gamma         !               0.0382808598129121 76.5366426813637 0.0382808598129284 76.5366426813613 
! Port Impedance50               0                50               0                

2.54             0.997649405857254 71.8026785912447 0.000405936846996116 -167.583570288742 0.000405936846996116 -167.583570288743 0.998462529564765 -108.566771298682 
! Gamma         !               0.0385845432081461 77.1440763536377 0.0385845432081631 77.144076353635  
! Port Impedance50               0                50               0                

2.56             0.99760657898292 70.9362982807688 0.000415159909873047 -168.69510350051 0.000415159909873048 -168.695103500511 0.998452357106888 -109.409066856097 
! Gamma         !               0.03888818366292 77.7515100259761 0.0388881836629376 77.751510025973  
! Port Impedance50               0                50               0                

2.58             0.997563301426722 70.0695651664805 0.000424539396768197 -169.804827737259 0.000424539396768197 -169.804827737259 0.998442182122857 -110.25106976027 
! Gamma         !               0.0391917839795447 78.3589436983748 0.039191783979563 78.3589436983714 
! Port Impedance50               0                50               0                

2.6              0.997519571048556 69.2024763534896 0.000434077224473255 -170.912777563989 0.000434077224473256 -170.91277756399 0.998432002029707 -111.09277811093 
! Gamma         !               0.0394953469023126 78.9663773708296 0.0394953469023315 78.9663773708257 
! Port Impedance50               0                50               0                

2.62             0.997475385675941 68.3350289632754 0.000443775327416859 -172.018987194554 0.00044377532741686 -172.018987194554 0.998421814158749 -111.934190029592 
! Gamma         !               0.0397988751137826 79.5738110433364 0.039798875113802 79.5738110433322 
! Port Impedance50               0                50               0                
