! Touchstone file exported from HFSS 2018.2.0
!        File:           C:/Users/10024/OneDrive - The University of Nottingham Ningbo China/Year 4/Final Year Project/HFSS project/Passive_Resonator_Antenna.aedt
!        Generated:      5:07:53 下午  3月 11, 2022
!        Design:         SMA_Thru
!        Project:        Passive_Resonator_Antenna
!        Setup:          Setup1
!        Solution:       Sweep
!
! Variables:
!        MW = 1.5mm
!        ThruL = 10mm
!        g = 0.2mm
!        subH = 0.8mm
!        subX = 20mm
!        subY = 20mm
!        tapW = 1.992mm
!
# GHZ S MA R 50.000000
! Modal data exported
! Port[1] = SMA_CONNECTOR1_1:1
! Port[2] = SMA_CONNECTOR2_1:1
1                0.0372437974312303 29.7549070388359 0.997985431856488 -60.2483419008989 0.997985431856488 -60.2483419008989 0.0372479661307838 29.066739762187  
! Gamma         !               0.015185838009173 30.3716836111866 0.0151858380090861 30.3716836111786 
! Port Impedance50               0                50               0                

1.02             0.0380814687064484 28.5049183052551 0.997912899521645 -61.4536631322856 0.997912899521645 -61.4536631322856 0.0380857436240536 27.8579011947247 
! Gamma         !               0.0155048488500118 30.9791172568282 0.0155048488425034 30.9791172535755 
! Port Impedance50               0                50               0                

1.04             0.0389244394504937 27.2559091239403 0.997838765303867 -62.6590016918941 0.997838765303867 -62.6590016918941 0.0389288044393752 26.6486806931014 
! Gamma         !               0.0158213750299441 31.5865509071131 0.0158213750165106 31.5865509011674 
! Port Impedance50               0                50               0                

1.06             0.0397727863889799 26.0078364535439 0.997763019084815 -63.864357537121 0.997763019084814 -63.864357537121 0.0397772256064688 25.4390972846255 
! Gamma         !               0.0161357153559915 32.1939845614171 0.016135715337893 32.1939845532584 
! Port Impedance50               0                50               0                

1.08             0.0406265843188745 24.7606606261081 0.997685650558055 -65.0697306012286 0.997685650558055 -65.0697306012286 0.0406310822186742 24.2291687765948 
! Gamma         !               0.0164481354786156 32.8014182191973 0.0164481354569108 32.8014182092439 
! Port Impedance50               0                50               0                

1.1              0.0414859060488111 23.5143450239758 0.997606649234794 -66.2751207928182 0.997606649234793 -66.2751207928182 0.0414904473742692 23.0189118629568 
! Gamma         !               0.0167588716600664 33.40885187998   0.016758871635645 33.4088518685938 
! Port Impedance50               0                50               0                

1.12             0.0423508223401511 22.2688557933181 0.997526004450001 -67.480527995314 0.99752600445    -67.480527995314 0.042355392118343 21.808342221394  
! Gamma         !               0.017068134076359 34.016285543353  0.0170681340499655 34.016285530848  
! Port Impedance50               0                50               0                

1.14             0.0432214018488529 21.0241615898065 0.997443705368923 -68.6859520664571 0.997443705368922 -68.6859520664571 0.0432259853853009 20.5974746020203 
! Gamma         !               0.0173761097172385 34.6237192089551 0.0173761096894949 34.6237191956027 
! Port Impedance50               0                50               0                

1.16             0.044097711068231 19.7802333525518 0.997359740993974 -69.8913928378101 0.997359740993974 -69.8913928378101 0.0441022939421128 19.3863229086808 
! Gamma         !               0.0176829649386285 35.2311528764705 0.0176829649100521 35.2311528625051 
! Port Impedance50               0                50               0                

1.18             0.0449798142726547 18.53704410295   0.997274100171983 -71.0968501142729 0.997274100171982 -71.0968501142729 0.0449843823323862 18.1749002737057 
! Gamma         !               0.0179888477138468 35.8385865456237 0.0179888476848662 35.8385865312468 
! Port Impedance50               0                50               0                

1.2              0.0458677734622696 17.2945687654924 0.997186771601804 -72.3023236736093 0.997186771601803 -72.3023236736093 0.04587231282136 16.9632191268268 
! Gamma         !               0.0182938896230193 36.4460202161735 0.018293889593987 36.446020201558  
! Port Impedance50               0                50               0                

1.22             0.0467616483088046 16.0527840079751 0.997097743842259 -73.5078132659859 0.997097743842258 -73.5078132659859 0.0467661453419096 15.7512912588641 
! Gamma         !               0.0185982076143833 37.0534538879086 0.0185982075855876 37.0534538732016 
! Port Impedance50               0                50               0                

1.24             0.0476614961025262 14.8116680988585 0.997007005320421 -74.713318613522 0.997007005320421 -74.713318613522 0.0476659374416387 14.5391278806925 
! Gamma         !               0.0189019055663469 37.6608875606445 0.0189019055380214 37.6608875459713 
! Port Impedance50               0                50               0                

1.26             0.0485673717004141 13.5712007797932 0.996914544340204 -75.9188394098513 0.996914544340203 -75.9188394098513 0.0485717442311449 13.3267396779309 
! Gamma         !               0.0192050756751143 38.268321234219  0.0192050756474458 38.268321219685  
! Port Impedance50               0                50               0                

1.28             0.0494793274756095 12.3313631515785 0.996820349091269 -77.1243753196949 0.996820349091268 -77.1243753196949 0.0494836183335323 12.1141368617175 
! Gamma         !               0.0195077996892433 38.8757549084909 0.0195077996623788 38.8757548941852 
! Port Impedance50               0                50               0                

1.3              0.0503974132682061 11.0921375720064 0.996724407658224 -78.3299259784458 0.996724407658222 -78.3299259784458 0.0504016098352359 10.9013292158974 
! Gamma         !               0.0198101500096002 39.4831885833374 0.0198101499836536 39.4831885693332 
! Port Impedance50               0                50               0                

1.32             0.0513216763374214 9.85350756424369 0.996626708030111 -79.5354909917642 0.99662670803011 -79.5354909917642 0.0513257662382393 9.68832614088504 
! Gamma         !               0.020112190670698 40.0906222586508 0.0201121906457549 40.0906222450078 
! Port Impedance50               0                50               0                

1.34             0.052252161315231 8.61545773453757 0.996527238110174 -80.7410699351843 0.996527238110173 -80.7410699351843 0.052256132413725 8.47513669444225 
! Gamma         !               0.0204139782172968 40.6980559343366 0.0204139781934183 40.6980559211043 
! Port Impedance50               0                50               0                

1.36             0.0531889101614762 7.37797369818736 0.996425985725894 -81.9466623537309 0.996425985725894 -81.9466623537309 0.0531927505572329 7.26176962956923 
! Gamma         !               0.020715562488343 41.3054896103135 0.0207155624655704 41.30548959753   
! Port Impedance50               0                50               0                

1.38             0.0541319621205168 6.14104201282818 0.996322938639294 -83.152267761546 0.996322938639293 -83.152267761546 0.0541356601453638 6.04823342968425 
! Gamma         !               0.021016987318784 41.9129232865108 0.0210169872971417 41.9129232742061 
! Port Impedance50               0                50               0                

1.4              0.055081353679451 4.90465011818769 0.996218084557491 -84.3578856415257 0.99621808455749 -84.3578856415258 0.0550848978940772 4.8345363412468  
! Gamma         !               0.0213182911684673 42.5203569628666 0.0213182911479654 42.5203569510628 
! Port Impedance50               0                50               0                

1.42             0.0560371185279533 3.66878628156391 0.996111411143519 -85.5635154449659 0.996111411143519 -85.5635154449659 0.0560404977186187 3.62068640395668 
! Gamma         !               0.0216195076861891 43.1277906393285 0.0216195076668262 43.1277906280409 
! Port Impedance50               0                50               0                

1.44             0.056999287519735 2.43343954836199 0.996002906027388 -86.7691565912161 0.996002906027387 -86.7691565912161 0.0570024906951119 2.40669147864923 
! Gamma         !               0.0219206662159825 43.7352243158503 0.0219206661977475 43.7352243050886 
! Port Impedance50               0                50               0                

1.46             0.0579678886356702 1.19859969708987 0.995892556817396 -87.974808467343 0.995892556817395 -87.974808467343 0.0579709050238405 1.19255927299488 
! Gamma         !               0.022221792251871 44.3426579923928 0.0222217922347449 44.342657982162  
! Port Impedance50               0                50               0                

1.48             0.0589429469486018 -0.0357428017114239 0.995780351111699 -89.1804704277999 0.995780351111696 -89.1804704277999 0.0589457659942359 -0.0217026349003323 
! Gamma         !               0.0225229078465858 44.9500916689232 0.0225229078305433 44.9500916592236 
! Port Impedance50               0                50               0                

1.5              0.0599244845898329 -1.26959682307615 0.995666276510119 -90.3861417941047 0.995666276510117 -90.3861417941047 0.0599270959515921 -1.23608677490343 
! Gamma         !               0.0228240319790987 45.5575253454126 0.0228240319641095 45.557525336241  
! Port Impedance50               0                50               0                

1.52             0.0609125207173127 -2.50297062217953 0.995550320626217 -91.5918218545245 0.995550320626216 -91.5918218545245 0.0609149142655  -2.45058576519004 
! Gamma         !               0.0231251808852633 46.1649590218374 0.0231251808712929 46.1649590131876 
! Port Impedance50               0                50               0                

1.54             0.0619070714855235 -3.73587186623366 0.995432471099617 -92.7975098637658 0.995432471099616 -92.7975098637658 0.061909237300027 -3.66519229442788 
! Gamma         !               0.0234263683553729 46.7723926981778 0.023426368342384 46.772392690041  
! Port Impedance50               0                50               0                

1.56             0.0629081500170666 -4.9683076640454 0.995312715608596 -94.0032050426714 0.995312715608594 -94.0032050426714 0.0629100783856098 -4.87989910573503 
! Gamma         !               0.0237276060020164 47.3798263744171 0.0237276059899694 47.3798263667822 
! Port Impedance50               0                50               0                

1.58             0.0639157663759166 -6.20028459352999 0.99519104188294 -95.2089065779232 0.995191041882938 -95.2089065779232 0.063917447792665 -6.09469898234158 
! Gamma         !               0.0240289035012374 47.9872600505421 0.0240289034900913 47.9872600433962 
! Port Impedance50               0                50               0                

1.6              0.0649299275423623 -7.43180872744095 0.995067437717088 -96.4146136217492 0.995067437717087 -96.4146136217492 0.0649313527069002 -7.30958473488568 
! Gamma         !               0.0243302688096786 48.594693726542  0.0243302687993915 48.5946937198708 
! Port Impedance50               0                50               0                

1.62             0.065950637389586 -8.66288565754639 0.994941890983563 -97.620325291637 0.994941890983561 -97.620325291637 0.0659517972062995 -8.52454919027717 
! Gamma         !               0.0246317083601018 49.2021274024088 0.0246317083506312 49.2021273961969 
! Port Impedance50               0                50               0                

1.64             0.066977896661863 -9.89352051745634 0.994814389646686 -98.8260406700516 0.994814389646686 -98.8260406700516 0.0669787822397514 -9.73958518206173 
! Gamma         !               0.0249332272374202 49.8095610781356 0.0249332272287236 49.8095610723666 
! Port Impedance50               0                50               0                

1.66             0.0680117029543696 -11.1237180042756 0.994684921776629 -100.031758804158 0.994684921776629 -100.031758804158 0.0680123056072966 -10.9546855422217 
! Gamma         !               0.025234829337157 50.4169947537183 0.0252348293291923 50.4169947483751 
! Port Impedance50               0                50               0                

1.68             0.0690520506945294 -12.3534823992428 0.994553475563763 -101.237478705551 0.994553475563762 -101.237478705551 0.0690523619419479 -12.1698430943467 
! Gamma         !               0.0255365175080443 51.0244284291536 0.02553651750077 51.0244284242187 
! Port Impedance50               0                50               0                

1.7              0.0700989311248824 -13.5828175874893 0.99442003933336 -102.443199349986 0.99442003933336 -102.443199349986 0.0700989426930363 -13.3850506481107 
! Gamma         !               0.0258382936803006 51.6318621044402 0.0258382936736759 51.6318620998957 
! Port Impedance50               0                50               0                

1.72             0.0711523322874377 -14.8117270770363 0.994284601560645 -103.64891967712 0.994284601560643 -103.64891967712 0.0711520361110567 -14.6003009949891 
! Gamma         !               0.0261401589809699 52.2392957795777 0.0261401589749551 52.2392957754054 
! Port Impedance50               0                50               0                

1.74             0.0722122390094378 -16.040214017131 0.994147150886196 -104.854638590254 0.994147150886195 -104.854638590254 0.0722116272339261 -15.815586905154 
! Gamma         !               0.0264421138375655 52.8467294545666 0.0264421138321219 52.8467294507487 
! Port Impedance50               0                50               0                

1.76             0.0732786328905013 -17.268281216011 0.994007676131746 -106.060354956087 0.994007676131745 -106.060354956088 0.073277697874632 -17.0309011254787 
! Gamma         !               0.0267441580711393 53.4541631294081 0.0267441580662296 53.4541631259266 
! Port Impedance50               0                50               0                

1.78             0.0743514922910821 -18.495931158167 0.993866166316361 -107.266067604475 0.99386616631636 -107.266067604475 0.0743502266101945 -18.2462363785896 
! Gamma         !               0.0270462909797849 54.0615968041046 0.0270462909753733 54.0615968009417 
! Port Impedance50               0                50               0                

1.8              0.0754307923221871 -19.7231660211695 0.99372261067303 -108.47177532819 0.993722610673029 -108.47177532819 0.0754291887718775 -19.461585362899 
! Gamma         !               0.0273485114134885 54.6690304786586 0.0273485114095402 54.6690304757968 
! Port Impedance50               0                50               0                

1.82             0.0765165048362909 -20.9499876921051 0.993576998665681 -109.677476882704 0.99357699866568 -109.677476882704 0.0765145564365967 -20.6769407535536 
! Gamma         !               0.0276508178411472 55.2764641530737 0.0276508178376293 55.2764641504958 
! Port Impedance50               0                50               0                

1.84             0.0776085984193853 -22.1763977836681 0.993429320006626 -110.883170985967 0.993429320006625 -110.883170985967 0.0776062984194459 -21.8922952042352 
! Gamma         !               0.0279532084105022 55.8838978273532 0.0279532084073831 55.8838978250426 
! Port Impedance50               0                50               0                

1.86             0.0787070383840905 -23.4023976499361 0.993279564674455 -112.088856318203 0.993279564674455 -112.088856318203 0.0787043802672708 -23.107641349747 
! Gamma         !               0.0282556810016575 56.4913315015014 0.028255680998907 56.4913314994418 
! Port Impedance50               0                50               0                

1.88             0.079811786763781 -24.6279884018571 0.993127722932397 -113.294531521719 0.993127722932397 -113.294531521719 0.0798087642532388 -24.3229718093201 
! Gamma         !               0.0285582332747955 57.0987651755227 0.028558233272385 57.0987651736981 
! Port Impedance50               0                50               0                

1.9              0.0809228023076244 -25.8531709224627 0.992973785347137 -114.500195200722 0.992973785347136 -114.500195200722 0.0809194093722985 -25.5382791905808 
! Gamma         !               0.0288608627126414 57.7061988494213 0.0288608627105438 57.7061988478164 
! Port Impedance50               0                50               0                

1.92             0.0820400404764962 -27.0779458818208 0.992817742808125 -115.705845921157 0.992817742808125 -115.705845921157 0.0820362713374908 -26.7535560941088 
! Gamma         !               0.0291635666581763 58.3136325232021 0.029163566656366 58.3136325218022 
! Port Impedance50               0                50               0                

1.94             0.0831634534396843 -28.3023137517349 0.992659586547372 -116.911482210556 0.99265958654737 -116.911482210556 0.0831593025770213 -27.9687951185276 
! Gamma         !               0.0294663423480544 58.9210661968698 0.0294663423465074 58.9210661956603 
! Port Impedance50               0                50               0                

1.96             0.0842929900723172 -29.5262748201865 0.992499308159729 -118.117102557911 0.992499308159728 -118.117102557911 0.0842884522320183 -29.1839888660652 
! Gamma         !               0.0297691869421363 59.5284998704293 0.0297691869408295 59.5284998693966 
! Port Impedance50               0                50               0                

1.98             0.0854285959534402 -30.7498292055263 0.992336899623684 -119.322705413556 0.992336899623684 -119.322705413556 0.0854236661549162 -30.3991299485206 
! Gamma         !               0.0300720975495115 60.1359335438854 0.0300720975484236 60.1359335430166 
! Port Impedance50               0                50               0                

2                0.0865702133646913 -31.9729768703978 0.992172353322639 -120.528289189087 0.992172353322639 -120.528289189087 0.0865648869083858 -31.6142109935803 
! Gamma         !               0.0303750712513519 60.743367217243  0.0303750712504629 60.7433672165255 
! Port Impedance50               0                50               0                

2.02             0.0877177812894821 -33.1957176353943 0.992005662066709 -121.733852257288 0.992005662066709 -121.733852257289 0.087712053764749 -32.8292246514225 
! Gamma         !               0.0306781051209041 61.3508008905069 0.0306781051201951 61.3508008899286 
! Port Impedance50               0                50               0                

2.04             0.0888712354126422 -34.4180511924286 0.991836819115004 -122.939392952099 0.991836819115004 -122.939392952099 0.0888651027057958 -34.0441636015553 
! Gamma         !               0.0309811962409007 61.9582345636818 0.0309811962403541 61.9582345632316 
! Port Impedance50               0                50               0                

2.06             0.0900305081204507 -35.6399771178099 0.991665818198423 -124.144909568596 0.991665818198422 -124.144909568596 0.0900239664229603 -35.2590205598312 
! Gamma         !               0.0312843417186466 62.5656682367729 0.031284341718246 62.5656682364397 
! Port Impedance50               0                50               0                

2.08             0.0911955285009985 -36.8614948850045 0.991492653542925 -125.350400363016 0.991492653542925 -125.350400363016 0.0911885743177782 -36.4737882855829 
! Gamma         !               0.0315875386990128 63.1731019097839 0.0315875386987429 63.1731019095576 
! Port Impedance50               0                50               0                

2.1              0.0923662223448345 -38.0826038770717 0.991317319893289 -126.555863552801 0.991317319893289 -126.555863552801 0.0923588525025753 -37.6884595888317 
! Gamma         !               0.0318907843755455 63.7805355827202 0.0318907843753922 63.7805355825909 
! Port Impedance50               0                50               0                

2.12             0.09354251214581 -39.303303398752 0.991139812537341 -127.761297316687 0.991139812537341 -127.761297316687 0.0935347238013223 -38.9030273375151 
! Gamma         !               0.0321940759998869 64.3879692555858 0.032194075999837 64.3879692555444 
! Port Impedance50               0                50               0                

2.14             0.0947243171021156 -40.5235926881928 0.990960127330635 -128.96669979482 0.990960127330635 -128.96669979482 0.0947161077506194 -40.1174844646872 
! Gamma         !               0.032497410889677 64.9954029283851 0.0324974108897183 64.995402928423  
! Port Impedance50               0                50               0                

2.16             0.0959115531174257 -41.743470928289 0.990778260721571 -130.172069088921 0.990778260721571 -130.172069088921 0.095902920600749 -41.3318239756466 
! Gamma         !               0.0328007864350985 65.6028366011221 0.0328007864352198 65.6028366012311 
! Port Impedance50               0                50               0                

2.18             0.09710413280213 -42.9629372576308 0.990594209776935 -131.377403262482 0.990594209776935 -131.377403262482 0.0970950753167681 -42.5460389549441 
! Gamma         !               0.0331042001042066 66.2102702738008 0.0331042001043975 66.2102702739734 
! Port Impedance50               0                50               0                

2.2              0.0983019654746038 -44.1819907810261 0.990407972207833 -132.58270034101 0.990407972207833 -132.58270034101 0.0982924815795857 -43.7601225732367 
! Gamma         !               0.0334076494471749 66.8177039464252 0.0334076494474259 66.8177039466541 
! Port Impedance50               0                50               0                

2.22             0.0995049571624994 -45.4006305795939 0.990219546395992 -133.787958312317 0.990219546395992 -133.787958312317 0.0994950457870197 -44.9740680939395 
! Gamma         !               0.0337111320995771 67.4251376189989 0.0337111320998793 67.4251376192775 
! Port Impedance50               0                50               0                

2.24             0.100713010604005 -46.6188557204054 0.990028931420409 -134.99317512686 0.990028931420409 -134.99317512686 0.100702671054772 -46.1878688796471 
! Gamma         !               0.03401464578481 68.0325712915255 0.0340146457851557 68.0325712918474 
! Port Impedance50               0                50               0                

2.26             0.10192602524908 -47.8366652656589 0.989836127084312 -136.19834869812 0.989836127084313 -136.19834869812 0.101915257217333 -47.4015183982862 
! Gamma         !               0.0343181883157591 68.6400049640083 0.0343181883161409 68.6400049643677 
! Port Impedance50               0                50               0                

2.28             0.103143897260625 -49.0540582813736 0.989641133942397 -137.403476903046 0.989641133942398 -137.403476903046 0.103132700828778 -48.6150102289705 
! Gamma         !               0.0346217575957916 69.2474386364506 0.0346217575962028 69.2474386368423 
! Port Impedance50               0                50               0                

2.3              0.104366519515588 -50.2710338455901 0.989443953328311 -138.608557582544 0.989443953328311 -138.608557582544 0.10435489516346 -49.828338067527 
! Gamma         !               0.0349253516191596 69.8548723088557 0.0349253516195942 69.8548723092743 
! Port Impedance50               0                50               0                

2.32             0.105593781606007 -51.4875910560673 0.989244587382339 -139.813588542023 0.989244587382341 -139.813588542023 0.105581730216584 -51.0414957316703 
! Gamma         !               0.0352289684708868 70.4623059812263 0.0352289684713393 70.4623059816675 
! Port Impedance50               0                50               0                

2.34             0.106825569839966 -52.7037290374619 0.989043039079269 -141.018567552001 0.98904303907927 -141.018567552001 0.106813092704676 -52.2544771658012 
! Gamma         !               0.035532606326202 71.0697396535654 0.0355326063266676 71.0697396540246 
! Port Impedance50               0                50               0                

2.36             0.108061767242508 -53.9194469479861 0.98883931225636 -142.223492348767 0.988839312256361 -142.223492348767 0.108048866065945 -53.4672764454081 
! Gamma         !               0.0358362634495815 71.6771733258753 0.0358362634500558 71.6771733263488 
! Port Impedance50               0                50               0                

2.38             0.109302253556477 -55.1347439855343 0.988633411641412 -143.428360635104 0.988633411641413 -143.428360635104 0.109288930460568 -54.6798877810536 
! Gamma         !               0.0361399381934532 72.2846069981592 0.0361399381939322 72.2846069986431 
! Port Impedance50               0                50               0                

2.4              0.110546905243345 -56.3496193932746 0.988425342880859 -144.633170081073 0.98842534288086 -144.633170081073 0.110533162770898 -55.8923055219344 
! Gamma         !               0.0364436289966106 72.8920406704189 0.0364436289970907 72.89204067091   
! Port Impedance50               0                50               0                

2.42             0.111795595484024 -57.5640724647011 0.98821511256785 -145.837918324864 0.988215112567851 -145.837918324864 0.111781436601641 -57.1045241589968 
! Gamma         !               0.0367473343823812 73.4994743426566 0.0367473343828594 73.4994743431521 
! Port Impedance50               0                50               0                

2.44             0.113048194179697 -58.7781025481492 0.988002728270276 -147.042602973703 0.988002728270277 -147.042602973703 0.113033622280031 -58.3165383276024 
! Gamma         !               0.037051052956588 74.1069080148749 0.0370510529570615 74.1069080153717 
! Port Impedance50               0                50               0                

2.46             0.114304567952724 -59.9917090507681 0.987788198558677 -148.247221604834 0.987788198558678 -148.247221604834 0.11428958685603 -59.5283428097367 
! Gamma         !               0.0373547834053402 74.7143416870754 0.0373547834058067 74.7143416875712 
! Port Impedance50               0                50               0                

2.48             0.11556458014764 -61.2048914419589 0.987571533033994 -149.451771766557 0.987571533033995 -149.451771766557 0.115549194102624 -60.7399325357555 
! Gamma         !               0.0376585244926842 75.3217753592603 0.0376585244931416 75.3217753597528 
! Port Impedance50               0                50               0                

2.5              0.116828090832293 -62.4176492562821 0.98735274235511 -150.656250979344 0.987352742355111 -150.656250979343 0.11681230451622 -61.9513025856641 
! Gamma         !               0.0379622750581433 75.9292090314312 0.0379622750585899 75.9292090319182 
! Port Impedance50               0                50               0                

2.52             0.118094956799212 -63.6299820958362 0.98713183826611 -151.860656737005 0.987131838266111 -151.860656737005 0.118078775317265 -63.1624481899376 
! Gamma         !               0.0382660340141723 76.5366427035895 0.0382660340146063 76.5366427040695 
! Port Impedance50               0                50               0                

2.54             0.119365031567209 -64.8418896321199 0.986908833623245 -153.064986507941 0.986908833623247 -153.064986507941 0.119348460451082 -64.3733647298775 
! Gamma         !               0.0385698003435479 77.1440763757369 0.0385698003439683 77.1440763762081 
! Port Impedance50               0                50               0                

2.56             0.120638165383315 -66.0533716073883 0.986683742421512 -154.269237736451 0.986683742421514 -154.269237736451 0.120621210589032 -65.5840477375153 
! Gamma         !               0.0388735730967176 77.7515100478752 0.0388735730971233 77.7515100483362 
! Port Impedance50               0                50               0                

2.58             0.12191420522511 -67.2644278355113 0.986456579820808 -155.473407844108 0.986456579820809 -155.473407844108 0.121896873130053 -66.7944928950669 
! Gamma         !               0.0391773513891226 78.3589437200052 0.0391773513895128 78.3589437204549 
! Port Impedance50               0                50               0                

2.6              0.1231929948035  -68.4750582023529 0.98622736217162 -156.677494231209 0.98622736217162 -156.677494231209 0.123175292202654 -68.0046960339517 
! Gamma         !               0.039481134398511 78.9663773921282 0.0394811343988849 78.9663773925655 
! Port Impedance50               0                50               0                

2.62             0.12447437456604 -69.6852626656772 0.985996107040176 -157.881494278283 0.985996107040178 -157.881494278283 0.124456308667451 -69.2146531333854 
! Gamma         !               0.039784921362256 79.5738110642457 0.0397849213626132 79.5738110646696 
! Port Impedance50               0                50               0                

2.64             0.125758181700866 -70.8950412546154 0.98576283323303 -159.085405347674 0.985762833233032 -159.085405347674 0.125739760120294 -70.4243603185602 
! Gamma         !               0.0400887115746906 80.1812447363585 0.0400887115750308 80.1812447367682 
! Port Impedance50               0                50               0                
