! Touchstone file exported from HFSS 2018.2.0
!        File:           C:/Users/10024/OneDrive - The University of Nottingham Ningbo China/Year 4/Final Year Project/HFSS project/Passive_Resonator_Antenna.aedt
!        Generated:      5:07:43 下午  3月 11, 2022
!        Design:         SMA_Thru
!        Project:        Passive_Resonator_Antenna
!        Setup:          Setup1
!        Solution:       Sweep
!
! Variables:
!        MW = 1mm
!        ThruL = 10mm
!        g = 0.2mm
!        subH = 0.8mm
!        subX = 20mm
!        subY = 20mm
!        tapW = 1.992mm
!
# GHZ S MA R 50.000000
! Modal data exported
! Port[1] = SMA_CONNECTOR1_1:1
! Port[2] = SMA_CONNECTOR2_1:1
1                0.106042015768157 28.5129677757069 0.993086485258617 -61.2228525470424 0.993086485258616 -61.2228525470425 0.106041099597018 28.7570799406857 
! Gamma         !               0.0151858380091386 30.3716836111967 0.0151858380091316 30.3716836111687 
! Port Impedance50               0                50               0                

1.02             0.108201710051266 27.2845193173588 0.992815433773924 -62.4461003977134 0.992815433773925 -62.4461003977134 0.108201101868773 27.5261174265103 
! Gamma         !               0.0154804365704764 30.9791172971131 0.0154804365704554 30.9791172970532 
! Port Impedance50               0                50               0                

1.04             0.110362682077673 26.0557816039181 0.9925388094511  -63.6692618482132 0.992538809451101 -63.6692618482132 0.110362364752367 26.2949874280691 
! Gamma         !               0.0157761901094191 31.586550981289  0.0157761901093854 31.5865509812016 
! Port Impedance50               0                50               0                

1.06             0.112524897719203 24.8267914182816 0.992256610367281 -64.8923341870957 0.992256610367281 -64.8923341870958 0.112524853235361 25.0637198976515 
! Gamma         !               0.0160730042228512 32.1939846638682 0.016073004222806 32.1939846637573 
! Port Impedance50               0                50               0                

1.08             0.114688322585976 23.5975838092012 0.991968834914086 -66.1153146653798 0.991968834914087 -66.1153146653798 0.114688532148352 23.8323435610727 
! Gamma         !               0.0163707901310414 32.801418344987  0.0163707901309863 32.8014183448556 
! Port Impedance50               0                50               0                

1.1              0.116852922063514 22.368192186253  0.99167548180198 -67.3382004956033 0.991675481801982 -67.3382004956033 0.116853366201496 22.6008859624107 
! Gamma         !               0.0166694644717144 33.4088520247711 0.0166694644716503 33.4088520246232 
! Port Impedance50               0                50               0                

1.12             0.119018661339952 21.1386484049107 0.991376550066111 -68.5609888508306 0.991376550066112 -68.5609888508306 0.119019320010557 21.3693735044248 
! Gamma         !               0.0169689490904853 34.0162857033393 0.0169689490904138 34.016285703177  
! Port Impedance50               0                50               0                

1.14             0.121185505423559 19.9089828431192 0.991072039073724 -69.7836768636188 0.991072039073725 -69.7836768636188 0.121186358112754 20.1378314853769 
! Gamma         !               0.0172691708291255 34.6237193808019 0.0172691708290475 34.6237193806285 
! Port Impedance50               0                50               0                

1.16             0.123353419150873 18.6792244705748 0.990761948533183 -71.0062616249519 0.990761948533184 -71.0062616249519 0.123354444972742 18.9062841328739 
! Gamma         !               0.0175700613129808 35.231153057262  0.0175700613128974 35.2311530570794 
! Port Impedance50               0                50               0                

1.18             0.125522367185721 17.4494009117481 0.990446278504651 -72.2287401831487 0.990446278504652 -72.2287401831487 0.125523544979086 17.6747546352617 
! Gamma         !               0.0178715567387319 35.8385867328152 0.0178715567386439 35.8385867326259 
! Port Impedance50               0                50               0                

1.2              0.127692314009465 16.2195385035501 0.990125029412458 -73.4511095427529 0.990125029412458 -73.4511095427529 0.127693622431576 16.4432651710243 
! Gamma         !               0.0181735976635553 36.4460204075515 0.0181735976634637 36.4460204073575 
! Port Impedance50               0                50               0                

1.22             0.129863223902832 14.9896623484112 0.989798202059183 -74.6733666634138 0.989798202059183 -74.6733666634138 0.129864641519824 15.2118369365754 
! Gamma         !               0.0184761287966214 37.0534540815531 0.018476128796527 37.0534540813558 
! Port Impedance50               0                50               0                

1.24             0.132035060919665 13.7597963634423 0.989465797641471 -75.8955084587647 0.989465797641472 -75.8955084587647 0.13203656629351 13.9804901727717 
! Gamma         !               0.0187790987937461 37.6608877548972 0.0187790987936497 37.6608877546984 
! Port Impedance50               0                50               0                

1.26             0.13420778885302 12.5299633262507 0.989127817767567 -77.1175317953066 0.989127817767567 -77.1175317953067 0.134209360624728 12.749244190426  
! Gamma         !               0.0190824600559098 38.2683214276554 0.0190824600558122 38.2683214274565 
! Port Impedance50               0                50               0                

1.28             0.136381371193977 11.3001849179082 0.988784264476577 -78.3394334913074 0.988784264476578 -78.3394334913074 0.136382988162867 11.5181173950557 
! Gamma         !               0.0193861685322498 38.8757550998931 0.0193861685321515 38.8757550996952 
! Port Impedance50               0                50               0                

1.3              0.138555771083568 10.0704817634938 0.988435140259445 -79.5612103157207 0.988435140259447 -79.5612103157208 0.138557412282446 10.2871273110637 
! Gamma         !               0.0196901835280381 39.4831887716718 0.0196901835279398 39.4831887714756 
! Port Impedance50               0                50               0                

1.32             0.140730951258257 8.84087347057947 0.988080448081592 -80.7828589871358 0.988080448081594 -80.7828589871358 0.140732596024375 9.05629060551428 
! Gamma         !               0.019994467518077 40.0906224430471 0.0199944675179792 40.090622442854  
! Port Impedance50               0                50               0                

1.34             0.142906873989378 7.61137866596993 0.987720191407211 -82.0043761727636 0.987720191407212 -82.0043761727636 0.142908502031076 7.82562311164195 
! Gamma         !               0.0202989859658522 40.6980561140712 0.0202989859657553 40.6980561138819 
! Port Impedance50               0                50               0                

1.36             0.145083501016937 6.38201503096621 0.987354374225145 -83.2257584874674 0.987354374225145 -83.2257584874674 0.145085092475904 6.59513985220058 
! Gamma         !               0.0206037071487237 41.3054897847909 0.0206037071486281 41.3054897846063 
! Port Impedance50               0                50               0                

1.38             0.147260793478231 5.15279933537964 0.986983001076321 -84.4470024928449 0.986983001076322 -84.4470024928449 0.147262328987342 5.36485506274463 
! Gamma         !               0.0209086019893571 41.9129234552504 0.0209086019892631 41.9129234550707 
! Port Impedance50               0                50               0                

1.4              0.149438711831691 3.92374747049293 0.986606077082657 -85.6681046963684 0.986606077082659 -85.6681046963684 0.149440172568388 4.1347822149119  
! Gamma         !               0.0212136438935472 42.5203571254891 0.0212136438934552 42.5203571253149 
! Port Impedance50               0                50               0                

1.42             0.151617215776359 2.69487448113079 0.986223607977376 -86.8890615505898 0.986223607977377 -86.8890615505898 0.15161858351159 2.90493403976249 
! Gamma         !               0.021518808594526 43.1277907955436 0.0215188085944363 43.1277907953752 
! Port Impedance50               0                50               0                

1.44             0.153796264167453 1.46619459697964 0.985835600136649 -88.1098694524166 0.98583560013665 -88.1098694524166 0.153797521310178 1.67532255121575 
! Gamma         !               0.0218240740038038 43.7352244654466 0.0218240740037165 43.7352244652845 
! Port Impedance50               0                50               0                

1.46             0.1559758149284  0.237721263272798 0.9854420606125  -89.3305247424644 0.985442060612501 -89.3305247424644 0.155976944565703 0.445959069613271 
! Gamma         !               0.0221294200685456 44.3426581352282 0.0221294200684609 44.3426581350726 
! Port Impedance50               0                50               0                

1.48             0.158155824959792 -0.990532829063105 0.98504299716685 -90.5510237044915 0.985042997166851 -90.5510237044915 0.158156810892636 -0.78314575457199 
! Gamma         !               0.0224348286354525 44.9500918049161 0.0224348286353706 44.9500918047672 
! Port Impedance50               0                50               0                

1.5              0.160336250045633 -2.21855571372025 0.984638418306634 -91.7713625649209 0.984638418306634 -91.7713625649209 0.16033707682034 -2.0119819168709 
! Gamma         !               0.0227402833210831 45.5575254745344 0.022740283321004 45.557525474392  
! Port Impedance50               0                50               0                

1.52             0.162517044757322 -3.44633611971647 0.984228333319877 -92.9915374924534 0.984228333319877 -92.9915374924534 0.162517697692837 -3.24054003479462 
! Gamma         !               0.0230457693885188 46.1649591441052 0.0230457693884426 46.16495914397   
! Port Impedance50               0                50               0                

1.54             0.16469816235575 -4.67386344244465 0.98381275231262 -94.2115445977772 0.98381275231262 -94.2115445977772 0.164698627566776 -4.46881132365573 
! Gamma         !               0.0233512736302606 46.7723928136482 0.0233512736301874 46.7723928135198 
! Port Impedance50               0                50               0                

1.56             0.166879554691923 -5.90112771502476 0.983391686246602 -95.431379933376 0.983391686246602 -95.431379933376 0.16687981910802 -5.69678757224386 
! Gamma         !               0.023656784257216 47.3798264831816 0.0236567842571458 47.37982648306   
! Port Impedance50               0                50               0                

1.58             0.16906117210648 -7.12811957992778 0.982965146977573 -96.6510394934406 0.982965146977574 -96.6510394934406 0.169061223487241 -6.92446111836866 
! Gamma         !               0.0239622907936244 47.9872601527206 0.0239622907935572 47.9872601526057 
! Port Impedance50               0                50               0                

1.6              0.171242963328526 -8.35483026084988 0.982533147294133 -97.8705192138857 0.982533147294134 -97.8705192138857 0.171242790274921 -8.15182482428875 
! Gamma         !               0.0242677839777515 48.5946938222795 0.0242677839776873 48.5946938221714 
! Port Impedance50               0                50               0                

1.62             0.173424875374125 -9.58125153482241 0.982095700956972 -99.0898149724738 0.982095700956974 -99.0898149724738 0.17342446733614 -9.37887205204778 
! Gamma         !               0.0245732556681749 49.2021274918703 0.0245732556681136 49.2021274917689 
! Port Impedance50               0                50               0                

1.64             0.175606853444847 -10.8073757045504 0.981652822738415 -100.308922589049 0.981652822738416 -100.308922589049 0.175606200725541 -10.6055966387416 
! Gamma         !               0.02487869875547 49.8095611615035 0.0248786987554116 49.8095611614086 
! Port Impedance50               0                50               0                

1.66             0.177788840826731 -12.0331955709765 0.981204528462123 -101.527837825881 0.981204528462123 -101.527837825881 0.177787934582826 -11.8319928717437 
! Gamma         !               0.0251841070791062 50.4169948311889 0.0251841070790507 50.4169948311001 
! Port Impedance50               0                50               0                

1.68             0.179970778790013 -13.258704406075 0.980750835042869 -102.746556388123 0.98075083504287 -102.746556388123 0.17996961102916 -13.0580554639181 
! Gamma         !               0.0254894753493511 51.024428500934  0.0254894753492984 51.0244285008513 
! Port Impedance50               0                50               0                

1.7              0.182152606490001 -14.4838959258821 0.980291760526249 -103.965073924376 0.98029176052625 -103.965073924376 0.182151170064847 -14.2837795288494 
! Gamma         !               0.0257947990739833 51.6318621707456 0.0257947990739334 51.6318621706689 
! Port Impedance50               0                50               0                

1.72             0.184334260869396 -15.7087642637743 0.979827324128225 -105.183386027373 0.979827324128226 -105.183386027373 0.184332549468597 -15.5091605561241 
! Gamma         !               0.0261000744896095 52.2392958406297 0.0261000744895622 52.2392958405586 
! Port Impedance50               0                50               0                

1.74             0.186515676562444 -16.9333039440098 0.97935754627438 -106.401488234765 0.979357546274381 -106.401488234765 0.186513684698759 -16.7341943866956 
! Gamma         !               0.0264052984973855 52.8467295105909 0.0264052984973407 52.8467295105254 
! Port Impedance50               0                50               0                

1.76             0.188696785801213 -18.1575098555505 0.978882448638791 -107.619376030026 0.978882448638793 -107.619376030026 0.188694508796826 -17.9588771883685 
! Gamma         !               0.0267104686029384 53.4541631806327 0.0267104686028962 53.4541631805724 
! Port Impedance50               0                50               0                

1.78             0.19087751832433 -19.3813772261843 0.978402054182397 -108.837044843464 0.978402054182398 -108.837044843464 0.19087495229355 -19.1832054314375 
! Gamma         !               0.0270155828602919 54.061596850758  0.027015582860252 54.0615968507028 
! Port Impedance50               0                50               0                

1.8              0.193057801288499 -20.6049015969715 0.977916387190762 -110.054490053333 0.977916387190762 -110.054490053333 0.193054943117969 -20.4071758645183 
! Gamma         !               0.0273206398195987 54.6690305209694 0.0273206398195609 54.6690305209191 
! Port Impedance50               0                50               0                

1.82             0.19523755918307 -21.8280787970382 0.977425473311155 -111.271706987062 0.977425473311156 -111.271706987062 0.195234406509657 -21.630785490607 
! Gamma         !               0.0276256384784893 55.2764641912681 0.0276256384784537 55.2764641912224 
! Port Impedance50               0                50               0                

1.84             0.197416713747983 -23.0509049187445 0.976929339588826 -112.488690922573 0.976929339588827 -112.488690922573 0.197413264934491 -22.8540315434058 
! Gamma         !               0.027930578236849 55.8838978616553 0.0279305782368155 55.883897861614  
! Port Impedance50               0                50               0                

1.86             0.199595183895354 -24.2733762932534 0.976428014502406 -113.70543708971 0.976428014502407 -113.70543708971 0.199591438004202 -24.0769114639547 
! Gamma         !               0.0282354588548416 56.4913315321311 0.02823545885481 56.4913315320938 
! Port Impedance50               0                50               0                

1.88             0.201772885634965 -25.4954894665299 0.975921527998343 -114.921940671758 0.975921527998344 -114.921940671758 0.201768842400003 -25.2994228776036 
! Gamma         !               0.0285402804140024 57.0987652026954 0.0285402804139726 57.0987652026621 
! Port Impedance50               0                50               0                

1.9              0.203949732003928 -26.7172411758002 0.975409911524303 -116.138196807056 0.975409911524304 -116.138196807056 0.203945391800533 -26.5215635713688 
! Gamma         !               0.0288450432812306 57.706198873348  0.0288450432812026 57.7061988733183 
! Port Impedance50               0                50               0                

1.92             0.20612563300076 -27.9386283265005 0.974893198061455 -117.354200590697 0.974893198061456 -117.354200590697 0.206120996814369 -27.7433314717067 
! Gamma         !               0.0291497480755152 58.3136325440875 0.0291497480754889 58.3136325440613 
! Port Impedance50               0                50               0                

1.94             0.208300495524099 -29.1596479697468 0.974371422155587 -118.569947076318 0.974371422155588 -118.569947076318 0.208295564917343 -28.9647246227466 
! Gamma         !               0.0294543956372356 58.9210662149129 0.0294543956372108 58.92106621489   
! Port Impedance50               0                50               0                

1.96             0.210474223316289 -30.3802972803569 0.973844619946986 -119.785431277967 0.973844619946986 -119.785431277967 0.210469000394865 -30.1857411650197 
! Gamma         !               0.0297589869998836 59.5284998858227 0.0297589869998602 59.5284998858028 
! Port Impedance50               0                50               0                

1.98             0.212646716912017 -31.6005735354557 0.973312829199034 -121.000648172047 0.973312829199034 -121.000648172047 0.212641204289482 -31.4063793147196 
! Gamma         !               0.0300635233640619 60.135933556815  0.0300635233640399 60.135933556798  
! Port Impedance50               0                50               0                

2                0.21481787359221 -32.8204740936947 0.972776089325485 -122.215592699332 0.972776089325486 -122.215592699332 0.214812074353825 -32.6266373435354 
! Gamma         !               0.030368006073617 60.7433672278879 0.0303680060735963 60.7433672278737 
! Port Impedance50               0                50               0                

2.02             0.216987587343344 -34.0399963751186 0.972234441416373 -123.430259767051 0.972234441416373 -123.430259767051 0.216981505009146 -33.8465135590897 
! Gamma         !               0.0306724365937737 61.3508008990395 0.0306724365937543 61.3508008990275 
! Port Impedance50               0                50               0                

2.04             0.21915574882234 -35.2591378417066 0.971687928262529 -124.644644251035 0.971687928262529 -124.644644251035 0.219149387309581 -35.0660062860189 
! Gamma         !               0.0309768164911432 61.9582345702667 0.0309768164911248 61.958234570257  
! Port Impedance50               0                50               0                

2.06             0.221322245327165 -36.4778959786215 0.971136594378682 -125.858740997921 0.971136594378682 -125.858740997921 0.22131560891228 -36.2851138477298 
! Gamma         !               0.0312811474154821 62.5656682415675 0.0312811474154648 62.5656682415599 
! Port Impedance50               0                50               0                

2.08             0.223486960773259 -37.6962682761942 0.970580486025139 -127.072544827409 0.970580486025139 -127.072544827409 0.223480054053515 -37.5038345488666 
! Gamma         !               0.0315854310830886 63.1731019129393 0.0315854310830723 63.1731019129336 
! Port Impedance50               0                50               0                

2.1              0.225649775675912 -38.9142522126724 0.970019651228012 -128.286050534566 0.970019651228012 -128.286050534566 0.225642603530882 -38.7221666585193 
! Gamma         !               0.031889669261724 63.7805355843793 0.0318896692617086 63.7805355843754 
! Port Impedance50               0                50               0                

2.12             0.227810567138633 -40.1318452377615 0.969454139798024 -129.499252892182 0.969454139798025 -129.499252892182 0.227803134691657 -39.9401083942058 
! Gamma         !               0.0321938637569555 64.3879692558852 0.032193863756941 64.3879692558827 
! Port Impedance50               0                50               0                

2.14             0.229969208847607 -41.3490447569838 0.968884003347868 -130.712146653153 0.968884003347869 -130.712146653153 0.229961521427375 -41.1576579066547 
! Gamma         !               0.0324980163998238 64.9954029274538 0.0324980163998101 64.9954029274529 
! Port Impedance50               0                50               0                

2.16             0.232125571072266 -42.565848116879 0.968309295308152 -131.924726552907 0.968309295308153 -131.924726552907 0.232117634174668 -42.3748132654191 
! Gamma         !               0.0328021290357384 65.6028365990826 0.0328021290357255 65.602836599083  
! Port Impedance50               0                50               0                

2.18             0.234279520671991 -43.7822525910728 0.967730070941936 -133.136987311863 0.967730070941937 -133.136987311863 0.234271339922389 -43.5915724453466 
! Gamma         !               0.0331062035145156 66.2102702707684 0.0331062035145034 66.21027027077   
! Port Impedance50               0                50               0                

2.2              0.236430921108958 -44.9982553672318 0.967146387357894 -134.348923637908 0.967146387357894 -134.348923637908 0.236422502224998 -44.8079333139276 
! Gamma         !               0.0334102416814744 66.8177039425091 0.0334102416814628 66.8177039425116 
! Port Impedance50               0                50               0                

2.22             0.2385796324671  -46.2138535349263 0.966558303522121 -135.560530228903 0.966558303522121 -135.560530228903 0.23857098122221 -46.0238936195471 
! Gamma         !               0.033714245369512 67.4251376143013 0.0337142453695011 67.4251376143048 
! Port Impedance50               0                50               0                

2.24             0.240725511477137 -47.4290440744189 0.965965880268627 -136.771801775208 0.965965880268627 -136.771801775208 0.240716633664846 -47.2394509806565 
! Gamma         !               0.0340182163920855 68.0325712861429 0.0340182163920751 68.0325712861472 
! Port Impedance50               0                50               0                

2.26             0.242868411547632 -48.6438238463934 0.965369180308548 -137.982732962221 0.965369180308549 -137.982732962221 0.24285931294682 -48.4546028758862 
! Gamma         !               0.0343221565370295 68.6400049580306 0.0343221565370197 68.6400049580356 
! Port Impedance50               0                50               0                

2.28             0.245008182801952 -49.8581895826387 0.964768268238132 -139.193318472931 0.964768268238133 -139.193318472931 0.244998869143172 -49.6693466351121 
! Gamma         !               0.0346260675611451 69.2474386299622 0.0346260675611358 69.2474386299679 
! Port Impedance50               0                50               0                

2.3              0.247144672121075 -51.0721378777005 0.964163210545525 -140.40355299048 0.964163210545524 -140.40355299048 0.247135149054045 -50.8836794314889 
! Gamma         !               0.034929951185499 69.8548723019349 0.0349299511854902 69.854872301941  
! Port Impedance50               0                50               0                

2.32             0.249277723192073 -52.2856651815045 0.963554075616417 -141.613431200734 0.963554075616416 -141.613431200734 0.24926799625446 -52.0975982744624 
! Gamma         !               0.0352338090913736 70.4623059739463 0.0352338090913652 70.4623059739529 
! Port Impedance50               0                50               0                

2.34             0.251407176562162 -53.4987677929637 0.962940933738615 -142.822947794859 0.962940933738615 -142.822947794859 0.251397251149759 -53.3111000037646 
! Gamma         !               0.0355376429168177 71.0697396459938 0.0355376429168098 71.0697396460008 
! Port Impedance50               0                50               0                

2.36             0.25353286969811 -54.7114418545711 0.962323857105565 -144.0320974719  0.962323857105566 -144.0320974719  0.2535227510365  -54.5241812844018 
! Gamma         !               0.0358414542537435 71.6771733180753 0.0358414542537359 71.6771733180826 
! Port Impedance50               0                50               0                

2.38             0.255654637050864 -55.9236833479778 0.961702919818905 -145.240874941363 0.961702919818905 -145.240874941363 0.255644330168676 -55.7368386026311 
! Gamma         !               0.0361452446455257 72.2846069901881 0.0361452446455186 72.2846069901956 
! Port Impedance50               0                50               0                

2.4              0.25777231012515 -57.135488090555 0.96107819789008 -146.449274925798 0.961078197890081 -146.449274925798 0.257761819828974 -56.9490682629327 
! Gamma         !               0.0364490155850577 72.8920406623302 0.036449015585051 72.8920406623377 
! Port Impedance50               0                50               0                

2.42             0.25988571755384 -58.346851732941 0.960449769241114 -147.657292163383 0.960449769241114 -147.657292163383 0.259875048404896 -58.160866385966 
! Gamma         !               0.0367527685132236 73.4994743344992 0.0367527685132173 73.499474334507  
! Port Impedance50               0                50               0                

2.44             0.261994685176847 -59.5577697575582 0.959817713704536 -148.86492141051 0.959817713704536 -148.86492141051 0.261983841469468 -59.3722289075095 
! Gamma         !               0.0370565048177484 74.1069080066933 0.0370565048177423 74.1069080067011 
! Port Impedance50               0                50               0                

2.46             0.264099036124281 -60.7682374780972 0.959182113022578 -150.072157444364 0.959182113022578 -150.072157444364 0.264088021866271 -60.5831515783717 
! Gamma         !               0.0373602258323902 74.7143416789104 0.0373602258323846 74.7143416789182 
! Port Impedance50               0                50               0                

2.48             0.266198590903599 -61.9782500399509 0.958543050845647 -151.27899506551 0.958543050845647 -151.27899506551 0.26618740979853 -61.7936299652638 
! Gamma         !               0.0376639328364431 75.3217753511486 0.0376639328364378 75.3217753511564 
! Port Impedance50               0                50               0                

2.5              0.268293167490443 -63.1878024215882 0.957900612730148 -152.48542910048 0.957900612730149 -152.48542910048 0.268281822921929 -63.0036594526147 
! Gamma         !               0.0379676270545164 75.929209023406  0.0379676270545114 75.9292090234138 
! Port Impedance50               0                50               0                

2.52             0.270382581422908 -64.3968894368445 0.957254886135697 -153.691454404357 0.957254886135699 -153.691454404357 0.270371076440901 -64.2132352453155 
! Gamma         !               0.038271309656566 76.5366426956807 0.0382713096565614 76.5366426956884 
! Port Impedance50               0                50               0                

2.54             0.272466645898857 -65.6055057381117 0.956605960421775 -154.897065863367 0.956605960421777 -154.897065863367 0.272454983207988 -65.4223523723689 
! Gamma         !               0.0385749817581483 77.1440763679713 0.038574981758144 77.144076367979  
! Port Impedance50               0                50               0                

2.56             0.274545171876037 -66.8136458204042 0.955953926843854 -156.102258397474 0.955953926843854 -156.102258397474 0.274533353826025 -66.6310056914238 
! Gamma         !               0.0388786444208736 77.7515100402761 0.0388786444208697 77.7515100402836 
! Port Impedance50               0                50               0                

2.58             0.27661796817459 -68.0213040262741 0.955298878549043 -157.307026962982 0.955298878549043 -157.307026962982 0.276605996752736 -67.8391898941656 
! Gamma         !               0.0391822986530363 78.3589437125935 0.0391822986530326 78.3589437126009 
! Port Impedance50               0                50               0                

2.6              0.278684841581676 -69.2284745515479 0.954640910571273 -158.511366555143 0.954640910571274 -158.511366555143 0.27867271840744 -69.0468995125352 
! Gamma         !               0.0394859454104001 78.9663773849221 0.0394859454103968 78.9663773849294 
! Port Impedance50               0                50               0                

2.62             0.280745596957799 -70.4351514518559 0.95398011982608 -159.71527221078 0.95398011982608 -159.71527221078 0.280733323279459 -70.2541289257475 
! Gamma         !               0.0397895855971209 79.5738110572609 0.0397895855971179 79.5738110572679 
! Port Impedance50               0                50               0                

2.64             0.282800037344572 -71.6413286499183 0.953316605104955 -160.918739010916 0.953316605104954 -160.918739010916 0.282787614037942 -71.4608723680744 
! Gamma         !               0.0400932200667869 80.181244729608  0.0400932200667842 80.1812447296147 
! Port Impedance50               0                50               0                
