! Touchstone file exported from HFSS 2018.2.0
!        File:           C:/Users/10024/OneDrive - The University of Nottingham Ningbo China/Year 4/Final Year Project/HFSS project/Passive_Resonator_Antenna.aedt
!        Generated:      5:08:31 下午  3月 11, 2022
!        Design:         SMA_Thru
!        Project:        Passive_Resonator_Antenna
!        Setup:          Setup1
!        Solution:       Sweep
!
! Variables:
!        MW = 2.5mm
!        ThruL = 10mm
!        g = 0.2mm
!        subH = 0.8mm
!        subX = 20mm
!        subY = 20mm
!        tapW = 1.992mm
!
# GHZ S MA R 50.000000
! Modal data exported
! Port[1] = SMA_CONNECTOR1_1:1
! Port[2] = SMA_CONNECTOR2_1:1
1                0.0645570857318235 -150.474115609637 0.996488125997385 -60.5794564004714 0.996488125997386 -60.5794564004714 0.0645578187676852 -150.452022987384 
! Gamma         !               0.0151858380091253 30.3716836111617 0.0151858380091358 30.3716836111915 
! Port Impedance50               0                50               0                

1.02             0.0656664374263898 -151.67229158488 0.996370997041543 -61.7892399769919 0.996370997041543 -61.7892399769919 0.0656672231069985 -151.644361969194 
! Gamma         !               0.0154930860378224 30.9791172773986 0.0154930860379258 30.9791172774614 
! Port Impedance50               0                50               0                

1.04             0.0667654422535702 -152.870218884757 0.996252599789501 -62.9989314367601 0.996252599789501 -62.9989314367601 0.0667662851484378 -152.83653422803 
! Gamma         !               0.0157995173126855 31.58655094507   0.0157995173128589 31.5865509451574 
! Port Impedance50               0                50               0                

1.06             0.0678539403950358 -154.067895542503 0.996132984970382 -64.20853033248  0.996132984970382 -64.20853033248  0.0678548451915885 -154.028531867946 
! Gamma         !               0.01610526028682 32.1939846139373 0.0161052602870443 32.1939846140426 
! Port Impedance50               0                50               0                

1.08             0.0689317743894603 -155.26531979778 0.996012203421312 -65.4180362827411 0.996012203421312 -65.4180362827411 0.0689327458943265 -155.220347605195 
! Gamma         !               0.0164104262888416 32.801418283796  0.0164104262891016 32.8014182839131 
! Port Impedance50               0                50               0                

1.1              0.0699987891662451 -156.462490071588 0.995890306053503 -66.6274489723081 0.995890306053503 -66.6274489723081 0.0699998323064369 -156.41197470575 
! Gamma         !               0.0167151116764205 33.4088519544719 0.0167151116767035 33.4088519545963 
! Port Impedance50               0                50               0                

1.12             0.0710548320788652 -157.659404944454 0.995767343818534 -67.8367681523642 0.995767343818535 -67.8367681523642 0.0710559519028712 -157.603406930091 
! Gamma         !               0.0170193997140286 34.016285625816  0.0170193997143243 34.0162856259437 
! Port Impedance50               0                50               0                

1.14             0.0720997529378338 -158.856063137492 0.995643367674863 -69.0459936407052 0.995643367674863 -69.0459936407052 0.0721009546166361 -158.794638484363 
! Gamma         !               0.0173233622128452 34.6237192977017 0.0173233622131453 34.6237192978297 
! Port Impedance50               0                50               0                

1.16             0.0731334040433103 -160.052463495962 0.995518428554574 -70.2551253218845 0.995518428554574 -70.2551253218845 0.073134692871335 -159.985663977126 
! Gamma         !               0.0176270609650235 35.2311529700218 0.0176270609653217 35.2311529701475 
! Port Impedance50               0                50               0                

1.18             0.0741556402173354 -161.248604975021 0.995392577330421 -71.4641631473095 0.995392577330421 -71.4641631473095 0.0741570216133519 -161.176478381004 
! Gamma         !               0.0179305489997221 35.8385866426839 0.0179305490000132 35.8385866428055 
! Port Impedance50               0                50               0                

1.2              0.0751663188357258 -162.444486627384 0.995265864783163 -72.6731071352863 0.995265864783162 -72.6731071352863 0.0751677983437022 -162.36707699865 
! Gamma         !               0.0182338716842935 36.4460203156121 0.0182338716845736 36.4460203157279 
! Port Impedance50               0                50               0                

1.22             0.0761652998596202 -163.640107592659 0.995138341569227 -73.8819573710155 0.995138341569226 -73.8819573710155 0.0761668831495368 -163.557455432502 
! Gamma         !               0.0185370676906705 37.0534539887401 0.0185370676909365 37.053453988849  
! Port Impedance50               0                50               0                

1.24             0.0771524458666887 -164.835467088133 0.995010058188735 -75.0907140065364 0.995010058188735 -75.0907140065364 0.0771541387353251 -164.747609557877 
! Gamma         !               0.018840169844149 37.6608876620138 0.018840169844399 37.660887662115  
! Port Impedance50               0                50               0                

1.26             0.0781276220820219 -166.030564400823 0.994881064953899 -76.2993772606212 0.994881064953899 -76.2993772606212 0.0781294304537145 -165.937535499008 
! Gamma         !               0.0191432058693885 38.2683213353873 0.019143205869621 38.2683213354803 
! Port Impedance50               0                50               0                

1.28             0.0790906964086935 -167.225398880629 0.994751411957822 -77.5079474186172 0.994751411957822 -77.5079474186172 0.0790926263360735 -167.127229607664 
! Gamma         !               0.0194461990464213 38.8757550088221 0.0194461990466355 38.8757550089067 
! Port Impedance50               0                50               0                

1.3              0.0800415394580219 -168.419969934446 0.99462114904372 -78.7164248322397 0.99462114904372 -78.7164248322397 0.0800435971227321 -168.316688444074 
! Gamma         !               0.0197491687877462 39.4831886822878 0.0197491687879417 39.4831886823635 
! Port Impedance50               0                50               0                

1.32             0.0809800245795212 -169.614277021097 0.994490325774595 -79.9248099193132 0.994490325774594 -79.9248099193132 0.0809822162929201 -169.505908759847 
! Gamma         !               0.0200521311461188 40.0906223557579 0.0200521311462955 40.0906223558249 
! Port Impedance50               0                50               0                

1.34             0.0819060278905669 -170.808319646987 0.994358991403371 -81.1331031634629 0.99435899140337 -81.1331031634629 0.0819083600944166 -170.694887482687 
! Gamma         !               0.0203550992613942 40.6980560292123 0.0203550992615525 40.698056029271  
! Port Impedance50               0                50               0                

1.36             0.0828194283057723 -172.002097362373 0.994227194843515 -82.3413051137556 0.994227194843515 -82.3413051137556 0.0828219075729156 -171.883621702673 
! Gamma         !               0.0206580837537139 41.305489702634  0.0206580837538542 41.3054897026843 
! Port Impedance50               0                50               0                

1.38             0.0837201075660874 -173.19560975816 0.994094984640172 -83.5494163842916 0.994094984640172 -83.5494163842916 0.0837227406011139 -173.072108659932 
! Gamma         !               0.0209610930693963 41.91292337601   0.0209610930695192 41.9129233760525 
! Port Impedance50               0                50               0                

1.4              0.0846079502676345 -174.388856463157 0.993962408941816 -84.7574376537473 0.993962408941816 -84.7574376537473 0.0846107439075342 -174.260345733538 
! Gamma         !               0.0212641337851064 42.5203570493309 0.0212641337852127 42.5203570493659 
! Port Impedance50               0                50               0                

1.42             0.0854828438902725 -175.581837141722 0.993829515472444 -85.9653696648685 0.993829515472443 -85.9653696648685 0.0854858051050838 -175.448330431492 
! Gamma         !               0.0215672108751876 43.1277907225887 0.0215672108752784 43.1277907226165 
! Port Impedance50               0                50               0                

1.44             0.0863446788259154 -176.774551491736 0.993696351504334 -87.1732132239171 0.993696351504333 -87.1732132239171 0.086347814719357 -176.636060381671 
! Gamma         !               0.0218703279464455 43.7352243957785 0.0218703279465219 43.7352243957996 
! Port Impedance50               0                50               0                

1.46             0.0871933484065978 -177.966999242862 0.99356296383137 -88.3809692000691 0.99356296383137 -88.3809692000691 0.0871966662166957 -177.823533323623 
! Gamma         !               0.0221734874441606 44.3426580688974 0.0221734874442232 44.3426580689125 
! Port Impedance50               0                50               0                

1.48             0.0880287489323019 -179.159180155038 0.993429398742956 -89.5886385247672 0.993429398742956 -89.5886385247672 0.0880322560320027 -179.010747101107 
! Gamma         !               0.0224766908326547 44.9500917419432 0.0224766908327049 44.9500917419525 
! Port Impedance50               0                50               0                

1.5              0.0888507796985461 179.648905982823 0.993295701998539 -90.796222191027 0.993295701998538 -90.796222191027 0.0888544835963189 179.802300344686 
! Gamma         !               0.0227799387533465 45.5575254149156 0.0227799387533852 45.5575254149196 
! Port Impedance50               0                50               0                

1.52             0.0896593430237487 178.457259353974 0.99316191880273 -92.0037212526985 0.99316191880273 -92.0037212526985 0.0896632513641769 178.61561098133  
! Gamma         !               0.0230832311628887 46.1649590878149 0.023083231162917 46.1649590878142 
! Port Impedance50               0                50               0                

1.54             0.0904543442763617 177.265880114822 0.993028093781075 -93.2111368236837 0.993028093781075 -93.2111368236836 0.090458464840718 177.429186690832 
! Gamma         !               0.0233865674536797 46.7723927606426 0.0233865674536986 46.7723927606377 
! Port Impedance50               0                50               0                

1.56             0.0912356919017851 176.074768395812 0.992894270956441 -94.4184700771111 0.992894270956442 -94.4184700771111 0.0912400326085973 176.243029274834 
! Gamma         !               0.0236899465587819 47.3798264334011 0.0236899465587926 47.3798264333924 
! Port Impedance50               0                50               0                

1.58             0.0920032974490708 174.883924302203 0.992760493726063 -95.6257222444684 0.992760493726064 -95.6257222444684 0.0920078663546677 175.057140459396 
! Gamma         !               0.0239933670430439 47.9872601060927 0.0239933670430471 47.9872601060808 
! Port Impedance50               0                50               0                

1.6              0.0927570755974042 173.693347914772 0.992626804839248 -96.8328946146936 0.992626804839248 -96.8328946146936 0.0927618808964478 173.87152189941  
! Gamma         !               0.0242968271820237 48.5946937787205 0.0242968271820205 48.5946937787054 
! Port Impedance50               0                50               0                

1.62             0.0934969441823847 172.50303929045  0.992493246375737 -98.039988533227 0.992493246375737 -98.039988533227 0.0935019942083825 172.686175182682 
! Gamma         !               0.0246003250301302 49.2021274512881 0.0246003250301214 49.2021274512707 
! Port Impedance50               0                50               0                

1.64             0.0942228242220846 171.3129984629   0.992359859724752 -99.2470054010233 0.992359859724753 -99.2470054010233 0.0942281274478867 171.501101833714 
! Gamma         !               0.0249038584792407 49.8095611237985 0.0249038584792272 49.809561123779  
! Port Impedance50               0                50               0                

1.66             0.0949346399429181 170.123225443057 0.992226685564719 -100.453946673527 0.99222668556472 -100.453946673527 0.0949402049811926 170.316303317219 
! Gamma         !               0.0252074253089112 50.4169947962562 0.0252074253088937 50.416994796235  
! Port Impedance50               0                50               0                

1.68             0.0956323188052911 168.933720219625 0.992093763843674 -101.660813859612 0.992093763843674 -101.660813859612 0.0956381544089729 169.131781041394 
! Gamma         !               0.0255110232291762 51.0244284686645 0.0255110232291555 51.0244284686417 
! Port Impedance50               0                50               0                

1.7              0.0963157915290435 167.744482759549 0.991961133760377 -102.867608520481 0.991961133760376 -102.867608520481 0.0963219065917718 167.947536360974 
! Gamma         !               0.0258146499168182 51.6318621410275 0.025814649916795 51.6318621410037 
! Port Impedance50               0                50               0                

1.72             0.0969849921186924 166.555513008453 0.991828833746111 -104.074332268538 0.991828833746111 -104.074332268538 0.0969913956752118 166.763570580085 
! Gamma         !               0.026118303045896 52.2392958133488 0.0261183030458708 52.2392958133242 
! Port Impedance50               0                50               0                

1.74             0.0976398578884582 165.36681089106  0.991696901447198 -105.280986766224 0.991696901447197 -105.280986766224 0.0976465591150042 165.579884954914 
! Gamma         !               0.0264219803132288 52.8467294856321 0.0264219803132023 52.8467294856069 
! Port Impedance50               0                50               0                

1.76             0.0982803294870785 164.178376311589 0.99156537370821 -106.487573724818 0.991565373708211 -106.487573724818 0.0982873377017336 164.396480696211 
! Gamma         !               0.0267256794594581 53.4541631578809 0.0267256794594306 53.4541631578556 
! Port Impedance50               0                50               0                

1.78             0.09890635092241 162.990209154128 0.991434286555908 -107.694094903214 0.991434286555909 -107.694094903214 0.0989136755854297 163.213358971634 
! Gamma         !               0.0270293982862403 54.0615968300996 0.0270293982862124 54.061596830074  
! Port Impedance50               0                50               0                

1.8              0.0995178695858084 161.802309282991 0.991303675183881 -108.900552106664 0.991303675183881 -108.900552106664 0.0995255202999206 162.030520907947 
! Gamma         !               0.0273331346700628 54.6690305022904 0.027333134670035 54.669030502265  
! Port Impedance50               0                50               0                

1.82             0.10011483627628 160.61467654305  0.991173573937908 -110.106947185493 0.991173573937908 -110.106947185493 0.100122822786956 160.847967593079 
! Gamma         !               0.027636886573117 55.2764641744575 0.0276368865730896 55.2764641744323 
! Port Impedance50               0                50               0                

1.84             0.100697205224406 159.427310760047 0.991044016302051 -111.313282033794 0.991044016302052 -111.313282033794 0.100705537420094 159.665700078058 
! Gamma         !               0.027940652051619 55.8838978466033 0.0279406520515924 55.8838978465785 
! Port Impedance50               0                50               0                

1.86             0.101264934116029 158.240211740877 0.990915034885449 -112.519558588084 0.990915034885449 -112.519558588084 0.101273622028363 158.483719378812 
! Gamma         !               0.0282444292619213 56.4913315187312 0.0282444292618958 56.491331518707  
! Port Impedance50               0                50               0                

1.88             0.101817984115684 157.053379273846 0.990786661409848 -113.725778825953 0.990786661409847 -113.725778825953 0.101827037919655 157.302026477856 
! Gamma         !               0.0285482164647206 57.0987651908437 0.0285482164646965 57.0987651908202 
! Port Impedance50               0                50               0                

1.9              0.102356319889786 155.866813128901 0.990658926697854 -114.931944764677 0.990658926697854 -114.931944764677 0.102365749903878 156.120622325855 
! Gamma         !               0.0288520120276324 57.7061988629433 0.0288520120276097 57.7061988629206 
! Port Impedance50               0                50               0                

1.92             0.102879909629554 154.680513057824 0.990531860661904 -116.138058459814 0.990531860661904 -116.138058459814 0.102889726315841 154.939507843083 
! Gamma         !               0.0291558144263714 58.3136325350327 0.0291558144263505 58.313632535011  
! Port Impedance50               0                50               0                

1.94             0.103388725073646 153.494478794383 0.990405492293966 -117.344122003781 0.990405492293966 -117.344122003781 0.103398939037857 153.758683920755 
! Gamma         !               0.0294596222447517 58.9210662071136 0.0294596222447327 58.9210662070929 
! Port Impedance50               0                50               0                

1.96             0.103882741530523 152.308710054456 0.990279849655957 -118.550137524412 0.990279849655957 -118.550137524412 0.103893363522062 152.578151422261 
! Gamma         !               0.0297634341736897 59.5284998791885 0.0297634341736727 59.5284998791686 
! Port Impedance50               0                50               0                

1.98             0.104361937900504 151.123206536096 0.990154959870887 -119.756107183497 0.990154959870887 -119.756107183497 0.104372978812439 151.397911184278 
! Gamma         !               0.0300672490093788 60.1359335512593 0.0300672490093639 60.1359335512405 
! Port Impedance50               0                50               0                

2                0.104826296697521 149.93796791955  0.990030849114729 -120.962033175302 0.99003084911473 -120.962033175302 0.104837767566517 150.21796401777  
! Gamma         !               0.0303710656507784 60.7433672233274 0.0303710656507658 60.7433672233097 
! Port Impedance50               0                50               0                

2.02             0.105275804070541 148.75299386723  0.989907542608997 -122.167917725083 0.989907542608998 -122.167917725083 0.105287716076759 149.038310708883 
! Gamma         !               0.0306748830965449 61.3508008953944 0.0306748830965345 61.3508008953777 
! Port Impedance50               0                50               0                

2.04             0.105710449824645 147.568284023613 0.989785064614054 -123.373763087576 0.989785064614054 -123.373763087576 0.105722814291595 147.858952019714 
! Gamma         !               0.0309787004415165 61.9582345674617 0.0309787004415083 61.9582345674463 
! Port Impedance50               0                50               0                

2.06             0.106130227441763 146.383838015086 0.989663438423133 -124.579571545484 0.989663438423134 -124.579571545484 0.106143055836106 146.679888688967 
! Gamma         !               0.0312825168728498 62.5656682395308 0.0312825168728439 62.5656682395164 
! Port Impedance50               0                50               0                

2.08             0.106535134101029 145.199655449722 0.98954268635707 -125.785345407942 0.98954268635707 -125.785345407942 0.106548438032333 145.501121432496 
! Gamma         !               0.0315863316658924 63.1731019116026 0.0315863316658889 63.1731019115893 
! Port Impedance50               0                50               0                

2.1              0.106925170698753 144.015735916972 0.989422829759753 -126.991087008985 0.989422829759754 -126.991087008985 0.106938961919196 144.322650943712 
! Gamma         !               0.0318901441798661 63.780535583678  0.0318901441798647 63.7805355836657 
! Port Impedance50               0                50               0                

2.12             0.107300341867977 142.832078987291 0.989303888994279 -128.196798705997 0.98930388899428 -128.196798705997 0.107314632272   143.144477893878 
! Gamma         !               0.0321939538534225 64.387969255758  0.0321939538534234 64.3879692557469 
! Port Impedance50               0                50               0                

2.14             0.107660655997622 141.648684211665 0.989185883439818 -129.402482878159 0.989185883439819 -129.402482878159 0.107675457621521 141.966602932266 
! Gamma         !               0.0324977602001291 64.9954029278435 0.0324977602001322 64.9954029278332 
! Port Impedance50               0                50               0                

2.16             0.108006125251179 140.465551121059 0.989068831489177 -130.608141924886 0.989068831489178 -130.608141924886 0.108021450272641 140.789026686185 
! Gamma         !               0.0328015628039312 65.6028365999347 0.0328015628039364 65.6028365999255 
! Port Impedance50               0                50               0                

2.18             0.108336765584938 139.282679225766 0.988952750547075 -131.813778264266 0.988952750547075 -131.813778264266 0.108352626322519 139.61174976087  
! Gamma         !               0.033105361314628 66.2102702720321 0.0331053613146353 66.2102702720239 
! Port Impedance50               0                50               0                

2.2              0.10865259676574 138.100068014647 0.988837657029097 -133.019394331491 0.988837657029098 -133.019394331491 0.108669005678272 138.434772739237 
! Gamma         !               0.0334091554434006 66.8177039441367 0.0334091554434098 66.8177039441295 
! Port Impedance50               0                50               0                

2.22             0.108953642388213 136.917716954275 0.988723566361362 -134.224992577286 0.988723566361363 -134.224992577286 0.108970612074152 137.258096181481 
! Gamma         !               0.0337129449584177 67.4251376162486 0.0337129449584288 67.4251376162423 
! Port Impedance50               0                50               0                

2.24             0.109239929891493 135.73562548796  0.988610492980862 -135.430575466337 0.988610492980863 -135.430575466337 0.10925747308819 136.081720624529 
! Gamma         !               0.0340167296805427 68.0325712883677 0.0340167296805556 68.0325712883623 
! Port Impedance50               0                50               0                

2.26             0.109511490575389 134.553793034657 0.988498450336499 -136.636145475723 0.988498450336499 -136.636145475723 0.109529620158284 134.905646581344 
! Gamma         !               0.0343205094791627 68.6400049604947 0.0343205094791774 68.64000496049   
! Port Impedance50               0                50               0                

2.28             0.109768359615974 133.372218987746 0.988387450890793 -137.841705093346 0.988387450890794 -137.841705093346 0.109787088597724 133.729874540058 
! Gamma         !               0.0346242842681539 69.2474386326294 0.0346242842681701 69.2474386326254 
! Port Impedance50               0                50               0                

2.3              0.110010576080596 132.19090271369  0.988277506122274 -139.047256816363 0.988277506122275 -139.047256816363 0.110029917610099 132.55440496294  
! Gamma         !               0.0349280540019957 69.8548723047718 0.0349280540020136 69.8548723047687 
! Port Impedance50               0                50               0                

2.32             0.110238182942248 131.00984355055  0.988168626528542 -140.252803149628 0.988168626528544 -140.252803149628 0.110258150303601 131.379238285205 
! Gamma         !               0.0352318186720442 70.4623059769222 0.0352318186720635 70.4623059769197 
! Port Impedance50               0                50               0                

2.34             0.110451227093323 129.829040806355 0.98806082162999 -141.458346604133 0.988060821629991 -141.458346604134 0.110471833704669 130.204374913627 
! Gamma         !               0.0355355783029697 71.0697396490805 0.0355355783029902 71.0697396490786 
! Port Impedance50               0                50               0                

2.36             0.110649759358676 128.648493757336 0.987954099974197 -142.663889695459 0.987954099974198 -142.663889695459 0.110671018770966 129.029815224981 
! Gamma         !               0.0358393329493648 71.6771733212462 0.0358393329493865 71.6771733212451 
! Port Impedance50               0                50               0                

2.38             0.110833834508024 127.468201645989 0.987848469140969 -143.869434942233 0.98784846914097 -143.869434942233 0.110855760403666 127.855559564291 
! Gamma         !               0.036143082692525 72.2846069934196 0.0361430826925478 72.2846069934189 
! Port Impedance50               0                50               0                

2.4              0.111003511267605 126.288163678991 0.987743935748034 -145.074984864596 0.987743935748034 -145.074984864596 0.111026117459003 126.681608242882 
! Gamma         !               0.036446827637403 72.8920406656005 0.0364468276374269 72.8920406656003 
! Port Impedance50               0                50               0                

2.42             0.111158852331117 125.108379024942 0.987640505457376 -146.28054198268 0.987640505457377 -146.28054198268 0.111182152759095 125.507961536229 
! Gamma         !               0.0367505679097366 73.4994743377885 0.0367505679097613 73.4994743377887 
! Port Impedance50               0                50               0                

2.44             0.11129992436988 123.928846811932 0.987538182982223 -147.4861088151  0.987538182982224 -147.4861088151  0.111323933101984 124.334619681596 
! Gamma         !               0.0370543036533478 74.1069080099836 0.0370543036533734 74.1069080099842 
! Port Impedance50               0                50               0                

2.46             0.111426798042217 122.749566124932 0.987436972094642 -148.691687877449 0.987436972094643 -148.691687877449 0.111451529270876 123.161582875454 
! Gamma         !               0.0373580350276131 74.7143416821853 0.0373580350276393 74.7143416821862 
! Port Impedance50               0                50               0                

2.48             0.111539548002014 121.570536002996 0.98733687563378 -149.897281680821 0.987336875633782 -149.897281680821 0.11156501604257 121.988851270685 
! Gamma         !               0.037661762205098 75.3217753543934 0.0376617622051248 75.3217753543947 
! Port Impedance50               0                50               0                

2.5              0.11163825290644 120.391755436265 0.987237895514716 -151.102892730338 0.987237895514717 -151.102892730338 0.111664472195022 120.816424973541 
! Gamma         !               0.0379654853693548 75.9292090266076 0.0379654853693821 75.9292090266092 
! Port Impedance50               0                50               0                

2.52             0.11172299542281 119.21322336278  0.987140032737914 -152.308523523698 0.987140032737915 -152.308523523698 0.111749980514054 119.64430404037  
! Gamma         !               0.0382692047128779 76.5366426988278 0.0382692047129057 76.5366426988296 
! Port Impedance50               0                50               0                

2.54             0.111793862234545 118.034938665075 0.987043287399298 -153.51417654974 0.987043287399299 -153.51417654974 0.111821627799147 118.472488474096 
! Gamma         !               0.038572920435211 77.1440763710534 0.038572920435239 77.1440763710554 
! Port Impedance50               0                50               0                

2.56             0.111850944046231 116.856900166564 0.986947658700904 -154.71985428703 0.986947658700906 -154.71985428703 0.111879504868313 117.300978220435 
! Gamma         !               0.0388766327412014 77.7515100432844 0.0388766327412296 77.7515100432865 
! Port Impedance50               0                50               0                

2.58             0.111894335587721 115.679106627701 0.986853144962126 -155.925559202462 0.986853144962128 -155.925559202462 0.111923706562023 116.129773163854 
! Gamma         !               0.039180341839396 78.3589437155202 0.0391803418394244 78.3589437155224 
! Port Impedance50               0                50               0                

2.6              0.111924135617287 114.501556741908 0.986759743631541 -157.131293749884 0.986759743631541 -157.131293749884 0.111954331746147 114.95887312325  
! Gamma         !               0.0394840479405724 78.9663773877605 0.0394840479406009 78.9663773877629 
! Port Impedance50               0                50               0                

2.62             0.11194044692378 113.32424913127  0.986667451299291 -158.337060368745 0.986667451299292 -158.337060368745 0.111971483313904 113.788277847348 
! Gamma         !               0.0397877512563991 79.5738110600052 0.0397877512564276 79.5738110600076 
! Port Impedance50               0                50               0                

2.64             0.111943376327758 112.147182341983 0.986576263710042 -159.54286148277 0.986576263710043 -159.54286148277 0.111975268186773 112.61798700981  
! Gamma         !               0.0400914519982191 80.1812447322537 0.0400914519982476 80.1812447322561 
! Port Impedance50               0                50               0                
