! Touchstone file exported from HFSS 2018.2.0
!        File:           C:/Users/10024/OneDrive - The University of Nottingham Ningbo China/Year 4/Final Year Project/HFSS project/Passive_Resonator_Antenna.aedt
!        Generated:      5:08:11 下午  3月 11, 2022
!        Design:         SMA_Thru
!        Project:        Passive_Resonator_Antenna
!        Setup:          Setup1
!        Solution:       Sweep
!
! Variables:
!        MW = 2mm
!        ThruL = 10mm
!        g = 0.2mm
!        subH = 0.8mm
!        subX = 20mm
!        subY = 20mm
!        tapW = 1.992mm
!
# GHZ S MA R 50.000000
! Modal data exported
! Port[1] = SMA_CONNECTOR1_1:1
! Port[2] = SMA_CONNECTOR2_1:1
1                0.0174967176743253 -150.298694897343 0.998477040760301 -60.1264179502865 0.998477040760301 -60.1264179502865 0.0175019204339949 -148.788549794753 
! Gamma         !               0.0151858380090882 30.3716836112163 0.0151858380091422 30.3716836111823 
! Port Impedance50               0                50               0                

1.02             0.0177035090508189 -151.441324969596 0.998430627830867 -61.3288223408599 0.998430627830867 -61.3288223408599 0.0177092393839698 -149.937106718875 
! Gamma         !               0.0154975606206928 30.9791172694675 0.0154975606216043 30.9791172699013 
! Port Impedance50               0                50               0                

1.04             0.0179021787285155 -152.583427466076 0.998383610415516 -62.5312241329201 0.998383610415516 -62.5312241329201 0.0179084541562253 -151.084109384905 
! Gamma         !               0.0158078130960777 31.5865509304249 0.0158078130976549 31.5865509312392 
! Port Impedance50               0                50               0                

1.06             0.0180926036183007 -153.724930329589 0.998336001669616 -63.7336236901853 0.998336001669615 -63.7336236901853 0.0180994425376793 -152.229517278354 
! Gamma         !               0.0161167926217917 32.1939845936941 0.0161167926238749 32.1939845948147 
! Port Impedance50               0                50               0                

1.08             0.0182746627501406 -154.865762520011 0.998287814580765 -64.9360213943083 0.998287814580765 -64.9360213943083 0.0182820844621277 -153.373287199606 
! Gamma         !               0.0164246726584147 32.8014182589354 0.0164246726608723 32.8014182602976 
! Port Impedance50               0                50               0                

1.1              0.0184482373137445 -156.005853598173 0.998239061953777 -66.1384176447045 0.998239061953778 -66.1384176447045 0.0184562620541545 -154.51537310273 
! Gamma         !               0.0167316057610097 33.4088519258534 0.0167316057637331 33.4088519274028 
! Port Impedance50               0                50               0                

1.12             0.0186132106995339 -157.14513333292 0.99818975639593 -67.3408128583546 0.99818975639593 -67.3408128583547 0.0186218596734288 -155.655725924061 
! Gamma         !               0.0170377260457846 34.0162855941942 0.0170377260486847 34.0162855958834 
! Port Impedance50               0                50               0                

1.14             0.0187694685399541 -158.283531326562 0.998139910302521 -68.5432074695803 0.998139910302521 -68.5432074695803 0.0187787639594217 -156.79429339942 
! Gamma         !               0.0173431513516586 34.6237192637362 0.0173431513546626 34.6237192655254 
! Port Impedance50               0                50               0                

1.16             0.0189168987511098 -159.420976654397 0.998089535842745 -69.7456019297927 0.998089535842745 -69.7456019297927 0.0189268638765901 -157.931019868588 
! Gamma         !               0.0176479851379899 35.2311529342888 0.0176479851410388 35.2311529361442 
! Port Impedance50               0                50               0                

1.18             0.0190553915747609 -160.55739751428 0.998038644945899 -70.9479967072146 0.9980386449459  -70.9479967072147 0.0190660507600475 -159.065846065652 
! Gamma         !               0.0179523181535469 35.8385866056874 0.0179523181565934 35.8385866075799 
! Port Impedance50               0                50               0                

1.2              0.0191848396206941 -161.692720882519 0.997987249287935 -72.1503922865755 0.997987249287936 -72.1503922865756 0.0191962183618186 -160.198708893619 
! Gamma         !               0.0182562299066353 36.4460202777885 0.0182562299096419 36.4460202796941 
! Port Impedance50               0                50               0                

1.22             0.0193051379094908 -162.826872172589 0.997935360278378 -73.3527891687788 0.997935360278378 -73.3527891687788 0.0193172628976728 -161.329541181579 
! Gamma         !               0.0185597899619692 37.0534539504683 0.0185597899649062 37.0534539523672 
! Port Impedance50               0                50               0                

1.24             0.0194161839157237 -163.959774893241 0.997882989047621 -74.5551878705426 0.997882989047622 -74.5551878705427 0.0194290830946517 -162.458271422542 
! Gamma         !               0.0188630590862372 37.6608876236214 0.0188630590890818 37.6608876254966 
! Port Impedance50               0                50               0                

1.26             0.0195178776116161 -165.091350302736 0.997830146434614 -75.7575889240137 0.997830146434615 -75.7575889240138 0.0195315802393287 -163.58482348984 
! Gamma         !               0.0191660902612485 38.2683212971549 0.0191660902639835 38.2683212989934 
! Port Impedance50               0                50               0                

1.28             0.0196101215112041 -166.221517055906 0.997776842974961 -76.9599928763535 0.997776842974961 -76.9599928763536 0.0196246582268802 -164.709116329821 
! Gamma         !               0.0194689295809455 38.8757549709907 0.0194689295835587 38.875754972781  
! Port Impedance50               0                50               0                

1.3              0.0196928207150483 -167.350190840753 0.997723088889435 -78.1624002892983 0.997723088889437 -78.1624002892984 0.0197082236110695 -165.831063628279 
! Gamma         !               0.0197716170463731 39.4831886450608 0.0197716170488559 39.4831886467947 
! Port Impedance50               0                50               0                

1.32             0.019765882955548 -168.477284001235 0.997668894072934 -79.3648117386928 0.997668894072935 -79.3648117386929 0.0197821856552339 -166.95057344782 
! Gamma         !               0.0200741872708182 40.0906223193069 0.0200741872731653 40.0906223209773 
! Port Impedance50               0                50               0                

1.34             0.0198292186429168 -169.60270514273 0.997614268083882 -80.5672278139966 0.997614268083883 -80.5672278139968 0.0198464563843619 -168.067547833024 
! Gamma         !               0.0203766701057371 40.6980559936804 0.020376670107946 40.698055995282  
! Port Impedance50               0                50               0                

1.36             0.0198827409118972 -170.726358716534 0.997559220134093 -81.7696491177665 0.997559220134094 -81.7696491177666 0.0199009506384286 -169.181882379936 
! Gamma         !               0.0206790911967217 41.3054896681388 0.0206790911987919 41.3054896696681 
! Port Impedance50               0                50               0                

1.38             0.0199263656692792 -171.848144579506 0.997503759079111 -82.9720762651112 0.997503759079112 -82.9720762651114 0.0199455861270835 -170.293465765989 
! Gamma         !               0.0209814724775793 41.9129233426466 0.0209814724795119 41.9129233441012 
! Port Impedance50               0                50               0                

1.4              0.0199600116423326 -172.967957524665 0.997447893409036 -84.1745098831232 0.997447893409035 -84.1745098831233 0.0199802834858658 -171.40217923602 
! Gamma         !               0.0212838326095955 42.5203570171742 0.0212838326113932 42.5203570185527 
! Port Impedance50               0                50               0                

1.42             0.019983600428239 -174.08568677824 0.997391631239841 -85.3769506102844 0.997391631239843 -85.3769506102845 0.0200049663341303 -172.507896039507 
! Gamma         !               0.0215861873721789 43.1277906916966 0.0215861873738453 43.1277906929983 
! Port Impedance50               0                50               0                

1.44             0.0199970565446491 -175.201215458183 0.997334980305223 -86.5793990958489 0.997334980305224 -86.5793990958491 0.0200195613348604 -173.610480813544 
! Gamma         !               0.0218885500103319 43.7352243661926 0.0218885500118716 43.7352243674179 
! Port Impedance50               0                50               0                

1.46             0.0200003074815063 -176.314419988718 0.997277947948942 -87.7818559992024 0.997277947948943 -87.7818559992026 0.0200239982566166 -174.709788905406 
! Gamma         !               0.0221909315437422 44.3426580406461 0.0221909315451603 44.3426580417956 
! Port Impedance50               0                50               0                

1.48             0.0199932837542732 -177.425169464838 0.997220541117717 -88.9843219891983 0.997220541117719 -88.9843219891985 0.0200182100378614 -175.805665627725 
! Gamma         !               0.0224933410417261 44.9500917150429 0.0224933410430281 44.9500917161181 
! Port Impedance50               0                50               0                

1.5              0.0199759189587483 -178.533324960016 0.997162766354658 -90.1867977434727 0.997162766354659 -90.1867977434729 0.0200021328539507 -176.89794543843 
! Gamma         !               0.0227957858677538 45.5575253893719 0.0227957858689456 45.5575253903749 
! Port Impedance50               0                50               0                

1.52             0.019948149827676 -179.638738769521 0.997104629793237 -91.3892839477377 0.997104629793239 -91.3892839477379 0.0199757061871401 -177.986451036525 
! Gamma         !               0.0230982718968677 46.1649590636251 0.0230982718979553 46.1649590645576 
! Port Impedance50               0                50               0                

1.54             0.0199099162893612 179.258746419189 0.997046137151845 -92.5917812950547 0.997046137151845 -92.5917812950548 0.0199388728999466 -179.070992363577 
! Gamma         !               0.0234008037089186 46.7723927377958 0.0234008037099082 46.7723927386604 
! Port Impedance50               0                50               0                

1.56             0.0198611615285742 178.159298438687 0.996987293728886 -93.7942904850881 0.996987293728886 -93.7942904850882 0.0198915793123469 179.848634500607 
! Gamma         !               0.0237033847602234 47.3798264118794 0.0237033847611211 47.3798264126784 
! Port Impedance50               0                50               0                

1.58             0.0198018320500289 177.063096647378 0.996928104398479 -94.9968122233403 0.996928104398479 -94.9968122233405 0.0198337752832539 178.77264856127  
! Gamma         !               0.0240060175359527 47.9872600858726 0.0240060175367645 47.9872600866092 
! Port Impedance50               0                50               0                

1.6              0.0197318777447897 175.970333041449 0.996868573606728 -96.1993472203695 0.996868573606729 -96.1993472203696 0.0197654142968759 177.701285265991 
! Gamma         !               0.0243087036853054 48.594693759774  0.0243087036860372 48.5946937604509 
! Port Impedance50               0                50               0                

1.62             0.0196512519600115 174.881213487265 0.996808705368589 -97.4018961909898 0.99680870536859 -97.40189619099  0.0196864535545914 176.634798013191 
! Gamma         !               0.0246114441413035 49.2021274335823 0.0246114441419611 49.2021274342023 
! Port Impedance50               0                50               0                

1.64             0.019559911572467 173.7959590907   0.996748503265335 -98.6044598534569 0.996748503265338 -98.6044598534571 0.0195968540730923 175.573459831663 
! Gamma         !               0.024914239226839 49.8095611072982 0.024914239227428 49.8095611078641 
! Port Impedance50               0                50               0                

1.66             0.0194578170664049 172.714807722348 0.996687970442634 -99.8070389286383 0.996687970442636 -99.8070389286385 0.0194965807896667 174.517565253888 
! Gamma         !               0.0252170887484341 50.4169947809225 0.0252170887489598 50.4169947814377 
! Port Impedance50               0                50               0                

1.68             0.0193449326163561 171.638015720496 0.996627109609225 -101.00963413917 0.996627109609226 -101.00963413917 0.0193856026756168 173.467432409441 
! Gamma         !               0.0255199920790176 51.0244284544565 0.0255199920794851 51.0244284549236 
! Port Impedance50               0                50               0                

1.7              0.019221226175625 170.565859797225 0.99656592303622 -102.212246208602 0.996565923036221 -102.212246208602 0.0192638928589937 172.423405368917 
! Gamma         !               0.0258229482308829 51.6318621279027 0.0258229482312969 51.6318621283248 
! Port Impedance50               0                50               0                

1.72             0.0190866695712955 169.498639177121 0.996504412557029 -103.41487586053 0.996504412557031 -103.41487586053 0.0191314287579812 171.385856773656 
! Gamma         !               0.0261259559198727 52.2392958012637 0.0261259559202381 52.2392958016434 
! Port Impedance50               0                50               0                

1.74             0.0189412386067586 168.436678002955 0.996442579567906 -104.617523817718 0.996442579567908 -104.617523817718 0.0189881922265355 170.355190792323 
! Gamma         !               0.0264290136217255 52.8467294745424 0.0264290136220464 52.8467294748825 
! Port Impedance50               0                50               0                

1.76             0.01878491317292 167.380328048515 0.996380425029117 -105.820190801216 0.996380425029119 -105.820190801217 0.0188341697141234 169.331846452231 
! Gamma         !               0.0267321196214201 53.4541631477415 0.0267321196217007 53.4541631480449 
! Port Impedance50               0                50               0                

1.78             0.0186176773694507 166.329971785724 0.996317949466757 -107.022877529463 0.996317949466758 -107.022877529463 0.0186693524417298 168.316301401379 
! Gamma         !               0.0270352720562708 54.0615968208652 0.027035272056515 54.0615968211342 
! Port Impedance50               0                50               0                

1.8              0.0184395196377159 165.286025861563 0.996255152975182 -108.225584717386 0.996255152975183 -108.225584717386 0.0184937365967106 167.309076166927 
! Gamma         !               0.027338468953448 54.6690304939158 0.0273384689536592 54.6690304941532 
! Port Impedance50               0                50               0                

1.82             0.0182504329072766 164.248945050311 0.996192035220092 -109.428313075499 0.996192035220094 -109.428313075499 0.0183073235494958 166.310738987358 
! Gamma         !               0.0276417082625263 55.2764641668979 0.027641708262708 55.2764641671061 
! Port Impedance50               0                50               0                

1.84             0.0180504147582763 163.219226758786 0.996128595442246 -110.63106330899 0.996128595442247 -110.63106330899 0.0181101200957545 165.321911309565 
! Gamma         !               0.0279449878836068 55.8838978398147 0.0279449878837617 55.883897839996  
! Port Impedance50               0                50               0                

1.86             0.0178394676023894 162.197416176972 0.996064832461805 -111.833836116811 0.996064832461806 -111.833836116811 0.0179021387282557 164.343274058855 
! Gamma         !               0.0282483056914969 56.4913315126698 0.0282483056916282 56.4913315128262 
! Port Impedance50               0                50               0                

1.88             0.0176175988856439 161.184112184318 0.996000744683329 -113.036632190766 0.996000744683331 -113.036632190766 0.0176833979435344 163.375574810154 
! Gamma         !               0.0285516595563894 57.098765185467  0.0285516595564995 57.0987651856007 
! Port Impedance50               0                50               0                

1.9              0.0173848213169873 160.179974143909 0.995936330101407 -114.239452214594 0.995936330101409 -114.239452214594 0.0174539225894424 162.419636013369 
! Gamma         !               0.0288550473614297 57.7061988582095 0.0288550473615212 57.7061988583225 
! Port Impedance50               0                50               0                

1.92             0.0171411531273617 159.185729743559 0.995871586306908 -115.442296863063 0.995871586306909 -115.442296863063 0.0172137442609101 161.476364455825 
! Gamma         !               0.0291584670175273 58.3136325309012 0.0291584670176024 58.3136325309953 
! Port Impedance50               0                50               0                

1.94             0.016886618365008 158.202184075977 0.995806510493887 -116.645166801055 0.995806510493888 -116.645166801055 0.0169629017527607 160.546762181453 
! Gamma         !               0.0294619164757263 58.9210662035452 0.0294619164757869 58.9210662036222 
! Port Impedance50               0                50               0                

1.96             0.016621247233987 157.230230191313 0.995741099467111 -117.848062682668 0.995741099467113 -117.848062682668 0.0167014415802881 159.631939131424 
! Gamma         !               0.0297653937374193 59.528499876145  0.0297653937374674 59.5284998762064 
! Port Impedance50               0                50               0                

1.98             0.0163450764844807 156.270861406291 0.995675349650214 -119.050985150312 0.995675349650215 -119.050985150312 0.0164294185806404 158.733127826499 
! Gamma         !               0.0300688968626611 60.1359335487034 0.0300688968626982 60.135933548751  
! Port Impedance50               0                50               0                

2                0.0160581498653622 155.325185718236 0.995609257094478 -120.253934833817 0.995609257094479 -120.253934833817 0.0161468966109562 157.851700480144 
! Gamma         !               0.0303724239768088 60.7433672212238 0.0303724239768366 60.743367221259  
! Port Impedance50               0                50               0                

2.02             0.0157605186520559 154.394442752523 0.995542817488238 -121.456912349553 0.99554281748824 -121.456912349553 0.0158539493628434 156.989189016936 
! Gamma         !               0.0306759732756949 61.3508008937092 0.0306759732757146 61.3508008937332 
! Port Impedance50               0                50               0                

2.04             0.0154522422658126 153.480023773661 0.995476026166895 -122.659918299551 0.995476026166896 -122.659918299551 0.0155506613173933 156.147308577501 
! Gamma         !               0.0309795430295166 61.9582345661619 0.0309795430295296 61.9582345661762 
! Port Impedance50               0                50               0                

2.06             0.0151333890046034 152.583495419433 0.995408878123541 -123.862953270643 0.995408878123543 -123.862953270643 0.0152371288707196 155.327985225138 
! Gamma         !               0.0312831315856051 62.5656682385854 0.0312831315856124 62.5656682385908 
! Port Impedance50               0                50               0                

2.08             0.0148040369109931 151.70662798276  0.995341368020192 -125.066017833611 0.995341368020194 -125.066017833611 0.0149134616674893 154.533388737753 
! Gamma         !               0.0315867373702232 63.1731019109815 0.0315867373702258 63.1731019109794 
! Port Impedance50               0                50               0                

2.1              0.0144642748091078 150.851429278737 0.995273490199611 -126.269112542348 0.995273490199613 -126.269112542348 0.0145797841893701 153.765971582105 
! Gamma         !               0.031890358889521 63.7805355833529 0.0318903588895198 63.7805355833442 
! Port Impedance50               0                50               0                

2.12             0.0141142035516001 150.02018540964  0.995205238697718 -127.47223793304 0.995205238697719 -127.47223793304 0.0142362376576631 153.028515438206 
! Gamma         !               0.0321939947297687 64.3879692557017 0.0321939947297644 64.3879692556873 
! Port Impedance50               0                50               0                

2.14             0.0137539375290417 149.215510100058 0.995136607256586 -128.675394523358 0.995136607256587 -128.675394523358 0.0138829823252721 152.324186987544 
! Gamma         !               0.0324976435569699 64.9954029280305 0.0324976435569633 64.9954029280112 
! Port Impedance50               0                50               0                

2.16             0.0133836065095369 148.440404745483 0.995067589338004 -129.878582811674 0.995067589338005 -129.878582811674 0.0135202002540456 151.656605121639 
! Gamma         !               0.0328013041159493 65.6028366003405 0.0328013041159409 65.6028366003173 
! Port Impedance50               0                50               0                

2.18             0.0130033578967782 147.698331940976 0.994998178137597 -131.081803276289 0.994998178137599 -131.081803276289 0.0131480987008474 151.029922296915 
! Gamma         !               0.0331049752289967 66.2102702726342 0.0331049752289871 66.2102702726076 
! Port Impedance50               0                50               0                

2.2              0.0126133595223818 146.993306085927 0.994928366599507 -132.285056374693 0.994928366599509 -132.285056374693 0.0127669142719934 150.448923496499 
! Gamma         !               0.0334086557941425 66.8177039449133 0.0334086557941322 66.8177039448838 
! Port Impedance50               0                50               0                

2.22             0.0122138031258793 146.330005773399 0.994858147431601 -133.488342542835 0.994858147431602 -133.488342542835 0.0123769180539536 149.919147209097 
! Gamma         !               0.0337123447831281 67.4251376171792 0.0337123447831173 67.4251376171476 
! Port Impedance50               0                50               0                

2.24             0.0118049087272713 145.713914175123 0.994787513121211 -134.691662194423 0.994787513121213 -134.691662194423 0.0119784219929868 149.447034064599 
! Gamma         !               0.0340160412391294 68.0325712894334 0.0340160412391186 68.0325712894004 
! Port Impedance50               0                50               0                

2.26             0.011386930168555 145.151495678186 0.994716455951399 -135.895015720252 0.9947164559514  -135.895015720252 0.0115717868838317 149.040110356177 
! Gamma         !               0.0343197442742857 68.6400049616774 0.0343197442742751 68.6400049616431 
! Port Impedance50               0                50               0                

2.28             0.0109601622008036 144.650419831091 0.994644968017701 -137.098403487546 0.994644968017703 -137.098403487547 0.01115743244642 148.707215729704 
! Gamma         !               0.0346234530670757 69.2474386339127 0.0346234530670654 69.2474386338776 
! Port Impedance50               0                50               0                

2.3              0.0105249496352226 144.219847521785 0.994573041245388 -138.301825839343 0.994573041245389 -138.301825839343 0.0107358501319409 148.458786946493 
! Gamma         !               0.034927166859583 69.85487230614   0.0349271668595733 69.8548723061046 
! Port Impedance50               0                50               0                

2.32             0.0100816992797855 143.870799670091 0.994500667407171 -139.505283093896 0.994500667407171 -139.505283093896 0.0103076195226937 148.307212939718 
! Gamma         !               0.0352308849546834 70.4623059783608 0.0352308849546745 70.4623059783255 
! Port Impedance50               0                50               0                

2.34             0.00963089567710276 143.616636181457 0.994427838141389 -140.708775544108 0.99442783814139 -140.708775544108 0.00987342949748747 148.267280464537 
! Gamma         !               0.0355346067131848 71.0697396505762 0.0355346067131766 71.069739650541  
! Port Impedance50               0                50               0                

2.36             0.00917312208976004 143.47368331725  0.994354544970623 -141.912303457005 0.994354544970624 -141.912303457005 0.00943410575865328 148.356734434794 
! Gamma         !               0.035838331550945 71.6771733227866 0.0358383315509378 71.6771733227519 
! Port Impedance50               0                50               0                

2.38             0.00870908881642065 143.462062106061 0.994280779320746 -143.115867073228 0.994280779320747 -143.115867073228 0.00899064690069845 148.596982168333 
! Gamma         !               0.0361420589359907 72.2846069949931 0.0361420589359844 72.2846069949593 
! Port Impedance50               0                50               0                

2.4              0.00823967187377017 143.606790316885 0.994206532540376 -144.319466606571 0.994206532540377 -144.319466606571 0.00854427199822716 149.013975107362 
! Gamma         !               0.036445788385656 72.8920406671966 0.0364457883856508 72.8920406671636 
! Port Impedance50               0                50               0                

2.42             0.00776596651244869 143.939257193752 0.994131795920723 -145.523102243547 0.994131795920723 -145.523102243547 0.00809648376031472 149.639302428692 
! Gamma         !               0.0367495194637572 73.4994743393976 0.0367495194637531 73.4994743393658 
! Port Impedance50               0                50               0                

2.44             0.0072893622018177 144.499204021461 0.994056560715802 -146.72677414299 0.994056560715803 -146.72677414299 0.00764915268182705 150.511522313283 
! Gamma         !               0.0370532517778178 74.1069080115968 0.0370532517778147 74.1069080115662 
! Port Impedance50               0                50               0                

2.46             0.00681164898637943 145.33738141872  0.993980818163017 -147.930482435697 0.993980818163017 -147.930482435697 0.00720462928378369 151.677725984292 
! Gamma         !               0.0373569849763551 74.7143416837947 0.037356984976353 74.7143416837653 
! Port Impedance50               0                50               0                

2.48             0.00633516997379938 146.519081998352 0.993904559504051 -149.134227224108 0.993904559504051 -149.134227224108 0.00676589321427378 153.195252034053 
! Gamma         !               0.0376607187462382 75.3217753559916 0.037660718746237 75.3217753559638 
! Port Impedance50               0                50               0                

2.5              0.00586304165414563 148.128721890207 0.9938277760061  -150.33800858202 0.9938277760061  -150.33800858202 0.0063367488580173 155.133297216957 
! Gamma         !               0.0379644528101246 75.9292090281883 0.0379644528101244 75.9292090281619 
! Port Impedance50               0                50               0                

2.52             0.0053994727468478 150.27545227332  0.993750458983372 -151.54182655435 0.993750458983373 -151.54182655435 0.00592207510208793 157.573824204174 
! Gamma         !               0.038268186923983 76.5366427003849 0.0382681869239836 76.53664270036   
! Port Impedance50               0                50               0                

2.54             0.00495022103892373 153.099143022831 0.993672599818878 -152.745681156929 0.993672599818878 -152.745681156929 0.00552812743875938 160.610530172238 
! Gamma         !               0.0385719208747051 77.1440763725817 0.0385719208747065 77.1440763725584 
! Port Impedance50               0                50               0                

2.56             0.00452322671303173 156.774378418164 0.993594189986452 -153.949572376349 0.993594189986452 -153.949572376349 0.00516286482106546 164.343611971337 
! Gamma         !               0.0388756544778121 77.7515100447793 0.0388756544778143 77.7515100447576 
! Port Impedance50               0                50               0                

2.58             0.00412942132229319 161.506217532383 0.993515221073015 -155.153500169841 0.993515221073015 -155.153500169841 0.00483621806226524 168.866783202036 
! Gamma         !               0.0391793875752572 78.3589437169776 0.0391793875752601 78.3589437169574 
! Port Impedance50               0                50               0                

2.6              0.00378356538130085 167.504280302429 0.993435684801026 -156.35746446521 0.993435684801026 -156.35746446521 0.00456012006824951 174.242425170076 
! Gamma         !               0.0394831200333254 78.9663773891769 0.0394831200333289 78.9663773891584 
! Port Impedance50               0                50               0                

2.62             0.00350460346968951 174.913756996123 0.993355573051118 -157.561465160805 0.993355573051119 -157.561465160805 0.00434800135287372 -179.536500844614 
! Gamma         !               0.0397868517406327 79.5738110613777 0.0397868517406367 79.5738110613606 
! Port Impedance50               0                50               0                

2.64             0.00331443840711106 -176.31031209501 0.993274877884889 -158.76550212554 0.993274877884889 -158.76550212554 0.00421342594078467 -172.589371878674 
! Gamma         !               0.040090582606224 80.1812447335795 0.0400905826062285 80.1812447335639 
! Port Impedance50               0                50               0                
