! Touchstone file exported from HFSS 2018.2.0
!        File:           C:/Users/10024/OneDrive - The University of Nottingham Ningbo China/Year 4/Final Year Project/HFSS project/Patch-1.aedt
!        Generated:      3:15:20 下午  3月 11, 2022
!        Design:         SMA_Thru
!        Project:        Patch-1
!        Setup:          Setup1
!        Solution:       Sweep
!
! Variables:
!        MW = 1mm
!        ThruL = 40mm
!        g = 0.2mm
!        subH = 0.8mm
!        subX = 20mm
!        subY = 50mm
!
# GHZ S MA R 50.000000
! Modal data exported
! Port[1] = SMA_CONNECTOR1_1:1
! Port[2] = SMA_CONNECTOR2_1:1
1                0.34468807895222 -24.2119492352073 0.935515092073454 -114.036291636182 0.935515092073453 -114.036291636182 0.344684817863034 -24.0477297071071 
! Gamma         !               0.0151858380091502 30.3716836111875 0.0151858380091325 30.3716836112099 
! Port Impedance50               0                50               0                

1.02             0.344519677006594 -26.3800430783432 0.935487428670163 -116.205560826975 0.935487428670162 -116.205560826975 0.344515867217212 -26.2179301974032 
! Gamma         !               0.0154893492049032 30.9791170789108 0.0154893043779733 30.9791173604719 
! Port Impedance50               0                50               0                

1.04             0.344053511381914 -28.5483379689422 0.935568835703947 -118.375207191622 0.935568835703946 -118.375207191622 0.344049223866956 -28.3880337419424 
! Gamma         !               0.0157929186321805 31.5865506042441 0.0157928414300268 31.5865510880945 
! Port Impedance50               0                50               0                

1.06             0.343289583144807 -30.7172390479185 0.93575883837711 -120.545627615308 0.935758838377109 -120.545627615308 0.343284887994677 -30.5584446961997 
! Gamma         !               0.0160965349085014 32.1939841760051 0.0160964354322185 32.1939847982599 
! Port Impedance50               0                50               0                

1.08             0.342227862313316 -32.8871485065232 0.93605664438096 -122.717217013686 0.936056644380957 -122.717217013686 0.342222828293573 -32.7295630731653 
! Gamma         !               0.0164001884882105 32.8014177848013 0.0164000748445824 32.8014184944859 
! Port Impedance50               0                50               0                

1.1              0.340868292917769 -35.0584645037165 0.936461143470343 -124.890367328749 0.936461143470341 -124.890367328749 0.340862987059784 -34.901783428973 
! Gamma         !               0.0167038714034398 33.4088514227772 0.0167037500165682 33.4088521797167 
! Port Impedance50               0                50               0                

1.12             0.33921079999746 -37.231580071285 0.936970906844386 -127.065466515935 0.936970906844384 -127.065466515935 0.339205287222508 -37.0754937188631 
! Gamma         !               0.0170075770376207 34.0162850833996 0.0170074529202704 34.0162858564053 
! Port Impedance50               0                50               0                

1.14             0.337255298523108 -39.406882002917 0.93758418638415 -129.242897519849 0.937584186384148 -129.242897519848 0.337249641301965 -39.2510741185453 
! Gamma         !               0.0173112999279291 34.6237187612648 0.0173111769167354 34.6237195265816 
! Port Impedance50               0                50               0                

1.16             0.335001704232683 -41.5847497235216 0.938298913812099 -131.423037236255 0.938298913812097 -131.423037236255 0.334995962282759 -41.4288958056336 
! Gamma         !               0.0176150355933793 35.2311524519308 0.0176149165518026 35.2311531919175 
! Port Impedance50               0                50               0                

1.18             0.332449946364877 -43.765554135162 0.939112699852219 -133.606255458318 0.939112699852216 -133.606255458318 0.332444176386802 -43.6093196953842 
! Gamma         !               0.0179187803856023 35.8385861517757 0.0179186673782414 35.8385868537758 
! Port Impedance50               0                50               0                

1.2              0.32959998226975 -45.9496564360709 0.940022833483411 -135.792913805445 0.94002283348341 -135.792913805445 0.329594237725336 -45.792695124458 
! Gamma         !               0.01822253135964 36.4460198578692 0.018222425801224 36.446020513262  
! Port Impedance50               0                50               0                

1.22             0.326451813870002 -48.1374069093108 0.941026281392286 -137.983364633577 0.941026281392283 -137.983364633577 0.326446144803426 -47.9793584758013 
! Gamma         !               0.0185262861623577 37.0534535678649 0.018526188944459 37.0534541712611 
! Port Impedance50               0                50               0                

1.24             0.323005505938494 -50.3291436777146 0.942119687744489 -140.177949926253 0.942119687744487 -140.177949926253 0.322999958842569 -50.1696317369353 
! Gamma         !               0.0188300429363298 37.6608872799071 0.0188299545345569 37.6608878284752 
! Port Impedance50               0                50               0                

1.26             0.319261206147952 -52.5251914217668 0.943299374406246 -142.3770001664  0.943299374406244 -142.3770001664  0.319255823877323 -52.3638209829214 
! Gamma         !               0.0191338002372873 38.2683209925477 0.01913372080145 38.268321485451  
! Port Impedance50               0                50               0                

1.28             0.315219166837224 -54.7258600570374 0.944561341759482 -144.580833189444 0.944561341759481 -144.580833189444 0.315213988570373 -54.5622147738987 
! Gamma         !               0.019437556963418 38.8757547046792 0.0194374863929027 38.875755142608  
! Port Impedance50               0                50               0                

1.3              0.310879768424625 -56.9314433676055 0.945901270264711 -146.78975301905 0.945901270264708 -146.78975301905 0.310874829676641 -56.7650824552983 
! Gamma         !               0.0197413122950074 39.4831884154748 0.0197412503013643 39.4831888002605 
! Port Impedance50               0                50               0                

1.32             0.30624354438303 -59.1422175915657 0.947314522935386 -149.004048687589 0.947314522935384 -149.004048687589 0.306238877071191 -58.9726723464405 
! Gamma         !               0.0200450656430816 40.090622124337  0.0200450118015985 40.0906224586354 
! Port Impedance50               0                50               0                

1.34             0.30131120767323 -61.3584399541021 0.948796148895476 -151.223993044298 0.948796148895475 -151.223993044298 0.301306840237612 -61.1852098000214 
! Gamma         !               0.0203488166058599 40.6980558308556 0.0203487703977008 40.6980561178898 
! Port Impedance50               0                50               0                

1.36             0.296083678511659 -63.5803471426592 0.950340888198206 -153.449841554936 0.950340888198204 -153.449841554936 0.296079636093269 -63.4028951107281 
! Gamma         !               0.0206525649319759 41.3054895347708 0.0206525257782699 41.3054897781222 
! Port Impedance50               0                50               0                

1.38             0.290562113326251 -65.8081537172799 0.951943178087935 -155.681831097753 0.951943178087933 -155.681831097753 0.290558418005492 -65.6259012454919 
! Gamma         !               0.0209563104895441 41.9129232359425 0.0209562777786417 41.9129234393874 
! Port Impedance50               0                50               0                

1.4              0.284747934729729 -68.042050447036 0.953597160888582 -157.920178761506 0.953597160888581 -157.920178761506 0.28474460582855 -67.8543713602051 
! Gamma         !               0.0212600532402627 42.5203569343253 0.0212600263492269 42.5203571017037 
! Port Impedance50               0                50               0                

1.42             0.278642862313522 -70.2822025603826 0.955296693700536 -160.165080652313 0.955296693700535 -160.165080652313 0.278639916765275 -70.0884160573878 
! Gamma         !               0.0215637932178455 43.1277906299453 0.0215637715291009 43.127790765062  
! Port Impedance50               0                50               0                

1.44             0.272248944038074 -72.5287478928755 0.957035360083099 -162.416710717105 0.957035360083099 -162.416710717106 0.272246396830108 -72.328110325301 
! Gamma         !               0.0218675305101591 43.7352243228853 0.021867513424107 43.7352244294318 
! Port Impedance50               0                50               0                

1.46             0.265568587966756 -74.7817949094562 0.958806483890961 -164.675219592494 0.958806483890964 -164.675219592494 0.265566452662147 -74.5734900800194 
! Gamma         !               0.0221712652445303 44.3426580132674 0.0221712521888181 44.3426580947684 
! Port Impedance50               0                50               0                

1.48             0.258604594062234 -77.0414205697264 0.96060314542056 -166.940733488826 0.96060314542056 -166.940733488826 0.258602883408623 -76.8245482060253 
! Gamma         !               0.0224749975757468 44.9500917012423 0.022474988011793 44.9500917610147 
! Port Impedance50               0                50               0                

1.5              0.251360185734034 -79.3076679925175 0.962418200004993 -169.213353120157 0.962418200004992 -169.213353120157 0.251358912370894 -79.0812299552906 
! Gamma         !               0.0227787276763462 45.5575253869786 0.0227787211036276 45.557525428108  
! Port Impedance50               0                50               0                

1.52             0.243839040800994 -81.5805438582957 0.964244299174473 -171.493152691742 0.964244299174471 -171.493152691742 0.243838218078894 -81.3434275151379 
! Gamma         !               0.023082455728836 46.1649590706569 0.0230824516873744 46.1649590959799 
! Port Impedance50               0                50               0                

1.54             0.236045321503248 -83.8600154638909 0.966073914472653 -173.780178957432 0.966073914472652 -173.780178957432 0.236044964434835 -83.6109734861413 
! Gamma         !               0.0233861819195409 46.7723927524607 0.023386179990956 46.772392764562  
! Port Impedance50               0                50               0                

1.56             0.227983703177475 -86.1460073085279 0.967899363987594 -176.074450359988 0.967899363987592 -176.074450359988 0.227983829545942 -85.8836329130154 
! Gamma         !               0.0236899064338094 47.379826432574  0.0236899062412508 47.3798264337844 
! Port Impedance50               0                50               0                

1.58             0.219659401188589 -88.4383970397738 0.969712841619693 -178.37595626787 0.969712841619692 -178.37595626787 0.219660032849171 -88.1610933709788 
! Gamma         !               0.0239936294523569 47.9872601111773 0.0239936306595727 47.9872601035798 
! Port Impedance50               0                50               0                

1.6              0.21107819569647 -90.7370105142339 0.971506449067844 179.315343677648 0.971506449067844 179.315343677648 0.211079360120142 -90.4429524057511 
! Gamma         !               0.0242973511485466 48.5946937884425 0.0242973534583087 48.5946937738825 
! Port Impedance50               0                50               0                

1.62             0.20224645382755 -93.0416156187503 0.97327223046964 176.999520091076 0.973272230469639 176.999520091076 0.202248185955423 -92.7287013239054 
! Gamma         !               0.0246010716864436 49.2021274645343 0.024601074838506 49.2021274446308 
! Port Impedance50               0                50               0                

1.64             0.193171148819237 -95.3519143339535 0.975002209582252 174.676674233152 0.97500220958225 174.676674233152 0.193173493324498 -95.017703877721 
! Gamma         !               0.0249047912194997 49.8095611396059 0.0249047949882404 49.8095611157664 
! Port Impedance50               0                50               0                

1.66             0.1838598757117  -97.6675322710345 0.97668842933845 172.346938249687 0.97668842933845 172.346938249687 0.183862889807666 -97.3091676962024 
! Gamma         !               0.0252085098897482 50.4169948138004 0.0252085140816107 50.4169947872356 
! Port Impedance50               0                50               0                

1.68             0.17432086317755 -99.9880045202719 0.978322993557894 170.010475245993 0.978322993557893 170.010475245993 0.174324620173207 -99.602105231613 
! Gamma         !               0.0255122278274074 51.0244284872482 0.025512232278241 51.0244284589888 
! Port Impedance50               0                50               0                

1.7              0.164562981107135 -102.312756021971 0.979898110538524 167.66747918506  0.979898110538524 167.66747918506  0.164567575008006 -101.895279258858 
! Gamma         !               0.0258159451508061 51.6318621600689 0.0258159497231789 51.6318621309809 
! Port Impedance50               0                50               0                

1.72             0.154595743607113 -104.641073638849 0.981406138197954 165.318174598904 0.981406138197953 165.318174598904 0.154601295211015 -104.187125119183 
! Gamma         !               0.0261196619665589 52.2392958323701 0.026119666547105 52.239295803171  
! Port Impedance50               0                50               0                

1.74             0.144429307125678 -106.97206536279 0.982839630381413 162.962816104067 0.982839630381412 162.962816104067 0.14443597230819 -106.475637082805 
! Gamma         !               0.0264233783699332 52.8467295042478 0.0264233828667771 52.8467294755227 
! Port Impedance50               0                50               0                

1.76             0.13407446349404 -109.304599032367 0.984191383902865 160.60168771413  0.984191383902864 160.60168771413  0.13408244478735 -108.758197773993 
! Gamma         !               0.0267270944453547 53.4541631757882 0.0267270987856497 53.4541631480035 
! Port Impedance50               0                50               0                

1.78             0.12354262777965 -111.637207377982 0.985454485840753 158.235101944241 0.985454485840752 158.235101944241 0.123552191054886 -111.031314269339 
! Gamma         !               0.0270308102670144 54.0615968470661 0.0270308143946148 54.0615968205844 
! Port Impedance50               0                50               0                

1.8              0.112845821002049 -113.967935642159 0.986622360571191 155.863398705069 0.986622360571191 155.863398705069 0.112857320337129 -113.290195339972 
! Gamma         !               0.0273345258995395 54.6690305181475 0.0273345297728273 54.6690304932409 
! Port Impedance50               0                50               0                

1.82             0.101996648010869 -116.294086868028 0.987688815990835 153.486943986211 0.987688815990835 153.486943986211 0.102010564229163 -115.528046011658 
! Gamma         !               0.0276382413987046 55.2764641890893 0.0276382449885764 55.2764641659512 
! Port Impedance50               0                50               0                

1.84             0.0910082712731027 -118.611774952925 0.988648088360508 151.106128331892 0.988648088360507 151.106128331892 0.091025274446695 -117.734831699978 
! Gamma         !               0.0279419568121589 55.88389785994   0.0279419601001802 55.8838978386969 
! Port Impedance50               0                50               0                

1.86             0.0798943822372538 -120.915092594009 0.98949488519032 148.721365114711 0.989494885190319 148.721365114711 0.0799154387570511 -119.894980866374 
! Gamma         !               0.0282456721801536 56.4913315307414 0.0282456751568791 56.4913315114617 
! Port Impedance50               0                50               0                

1.88             0.0686691741149714 -123.194443447607 0.990224425588351 146.33308861617  0.990224425588351 146.33308861617  0.0686957429944437 -121.982786749426 
! Gamma         !               0.0285493875362558 57.0987652015275 0.0285493901997133 57.0987651842331 
! Port Impedance50               0                50               0                

1.9              0.0573473258515258 -125.43286461409 0.990832477508751 143.941751925687 0.990832477508749 143.941751925687 0.0573817515249161 -123.952285372588 
! Gamma         !               0.0288531029080385 57.7061988723271 0.0288531052623714 57.7061988569999 
! Port Impedance50               0                50               0                

1.92             0.0459440261698465 -127.596809322779 0.991315391361629 141.547824672719 0.991315391361629 141.547824672719 0.0459904228627185 -125.71194502498 
! Gamma         !               0.0291568183177393 58.3136325431629 0.0291568203720002 58.3136325297537 
! Port Impedance50               0                50               0                

1.94             0.0344751430267595 -129.608402353386 0.991670129486298 139.15179060933  0.991670129486297 139.151790609329 0.0345417540471557 -127.048784146236 
! Gamma         !               0.0294605337828827 58.9210662140537 0.0294605355499701 58.9210662024865 
! Port Impedance50               0                50               0                

1.96             0.022958066319219 -131.233891460457 0.991894291040718 136.754145063081 0.991894291040717 136.754145063081 0.0230655118501459 -127.325929451764 
! Gamma         !               0.0297642493168625 59.5284998850129 0.0297642508125905 59.528499875194  
! Port Impedance50               0                50               0                

1.98             0.0114180236536673 -131.29497950457 0.991986131922555 134.35539228236  0.991986131922555 134.35539228236  0.0116481588337846 -123.408639875266 
! Gamma         !               0.030067964929482 60.1359335560514 0.0300679661717742 60.1359335478715 
! Port Impedance50               0                50               0                

2                0.000945662426349325 -36.2425356881381 0.991944579409613 131.956042698126 0.991944579409613 131.956042698126 0.00256533301277636 -43.680397947779 
! Gamma         !               0.030371680627451 60.7433672271761 0.030371681635648 60.7433672205164 
! Port Impedance50               0                50               0                

2.02             0.0118169237754776 34.7752178195132 0.991769241287965 129.556610127529 0.991769241287964 129.556610127529 0.0120714082255954 26.8932058597789 
! Gamma         !               0.0306753964148404 61.3508008983915 0.0306753972091112 61.350800893127  
! Port Impedance50               0                50               0                

2.04             0.0233694360913234 34.5976600127204 0.991460409322727 127.157608945905 0.991460409322727 127.157608945905 0.0235077775991627 30.4794584229099 
! Gamma         !               0.0309791122934946 61.9582345697    0.0309791128943422 61.9582345657024 
! Port Impedance50               0                50               0                

2.06             0.0349058749935233 32.9504962200097 0.991019057016963 124.759551254169 0.991019057016963 124.759551254169 0.0350046177648423 30.1387910159674 
! Gamma         !               0.031282828263403 62.565668241102  0.0312828286912542 62.5656682382426 
! Port Impedance50               0                50               0                

2.08             0.04640162682918 30.9313202803216 0.990446831696083 122.362944068713 0.990446831696083 122.362944068713 0.0464805690163853 28.7799960416335 
! Gamma         !               0.0315865443230326 63.1731019125954 0.0315865445979041 63.1731019107474 
! Port Impedance50               0                50               0                

2.1              0.0578393282088497 28.7638767765421 0.98974604104608 119.96828656046  0.989746041046078 119.96828656046  0.0579064697872506 27.010663943276  
! Gamma         !               0.0318902604696241 63.7805355841784 0.0318902606108545 63.7805355832185 
! Port Impedance50               0                50               0                

2.12             0.0692030616810496 26.5235672522035 0.988919634321312 117.576067368815 0.988919634321312 117.576067368815 0.0692624196197148 25.0364595086443 
! Gamma         !               0.032193976699453 64.3879692558472 0.0321939767254949 64.3879692556568 
! Port Impedance50               0                50               0                

2.14             0.0804775610364857 24.2430899857281 0.987971178519299 115.186762014892 0.987971178519298 115.186762014892 0.0805314346252132 22.9463942543035 
! Gamma         !               0.0324976930080584 64.9954029275972 0.0324976929363211 64.9954029280641 
! Port Impedance50               0                50               0                

2.16             0.0916480513197619 21.939052996534  0.986904829893788 112.800830436595 0.986904829893788 112.800830436595 0.0916978780854106 20.7853766351116 
! Gamma         !               0.0328014093904424 65.6028365994235 0.0328014092371799 65.6028366004422 
! Port Impedance50               0                50               0                

2.18             0.102700227660023 19.6208827504103 0.985725301241724 110.418714666007 0.985725301241723 110.418714666007 0.10274696561288 18.5786084869066 
! Gamma         !               0.0331051258412417 66.2102702713209 0.0331051256214791 66.2102702727932 
! Port Impedance50               0                50               0                

2.2              0.113620272579229 17.2943967964107 0.984437825452976 108.040836667084 0.984437825452976 108.040836667084 0.113664592015675 16.3413953523893 
! Gamma         !               0.0334088423548751 66.8177039432835 0.0334088420823664 66.817703945119  
! Port Impedance50               0                50               0                

2.22             0.124394884022879 14.9634300902649 0.9830481158531  105.667596348965 0.983048115853099 105.667596348964 0.124437272446103 14.0836211024236 
! Gamma         !               0.0337125589256669 67.4251376153057 0.0337125586128819 67.4251376174219 
! Port Impedance50               0                50               0                

2.24             0.135011304662669 12.6306486518372 0.981562323898113 103.299369767382 0.981562323898113 103.299369767382 0.135052128134859 11.8119903915278 
! Gamma         !               0.0340162755479512 68.0325712873817 0.0340162752060838 68.0325712897043 
! Port Impedance50               0                50               0                

2.26             0.145457348736221 10.2979876205139 0.979986994796427 100.936507523707 0.979986994796428 100.936507523707 0.145496889707425 9.53123794532775 
! Gamma         !               0.0343199922161574 68.6400049595057 0.0343199918551535 68.640004961968  
! Port Impedance50               0                50               0                

2.28             0.155721424794218 7.96690136501349 0.978329021636662 98.5793333682061 0.978329021636662 98.5793333682061 0.15575990645114 7.24482021044458 
! Gamma         !               0.0346237089248796 69.2474386316722 0.0346237085534792 69.2474386342152 
! Port Impedance50               0                50               0                

2.3              0.165792553621353 5.63851334711061 0.976595598591915 96.2281430111767 0.976595598591916 96.2281430111767 0.165830156121312 4.9553305446523  
! Gamma         !               0.0349274256689313 69.854872303876  0.0349274252947226 69.8548723064481 
! Port Impedance50               0                50               0                

2.32             0.175660381035501 3.31370963902685 0.974794173752021 93.8832031428233 0.974794173752021 93.8832031428233 0.175697252647968 2.66475877043303 
! Gamma         !               0.035231142443388 70.4623059761121 0.0352311420728703 70.4623059786685 
! Port Impedance50               0                50               0                

2.34             0.185315185514087 0.993199355523225 0.97293240210656 91.54475066009   0.97293240210656 91.54475066009   0.185351450450343 0.374659155463623 
! Gamma         !               0.0355348592436183 71.0697396483754 0.035534858882271 71.0697396508781 
! Port Impedance50               0                50               0                

2.36             0.194747880750037 -1.32244506949823 0.971018099164449 89.2129920962261 0.97101809916445 89.2129920962261 0.19478364477117 -1.91373754638879 
! Gamma         !               0.0358385760653056 71.6771733206616 0.0358385757176616 71.6771733230789 
! Port Impedance50               0                50               0                

2.38             0.203950013344841 -3.63276027525754 0.969059195652144 86.8881032466727 0.969059195652144 86.8881032466727 0.203985367838399 -4.19944734537774 
! Gamma         !               0.0361422929044616 72.2846069929666 0.0361422925741832 72.2846069952722 
! Port Impedance50               0                50               0                

2.4              0.212913755921966 -5.93737254531087 0.967063693683662 84.5702289829348 0.967063693683662 84.5702289829348 0.212948780897708 -6.48167916187806 
! Gamma         !               0.0364460097574329 72.8920406652864 0.0364460094473887 72.8920406674596 
! Port Impedance50               0                50               0                

2.42             0.221631895999349 -8.23598378186208 0.965039624743158 82.2594832444718 0.96503962474316 82.2594832444718 0.221666662306111 -8.75979619354129 
! Gamma         !               0.0367497266209018 73.4994743376177 0.0367497263332426 73.4994743396425 
! Port Impedance50               0                50               0                

2.44             0.230097820999589 -10.52836112108  0.962995009766351 79.9559491973075 0.962995009766352 79.9559491973075 0.230132391970822 -11.0332876215976 
! Gamma         !               0.0370534434918816 74.1069080099573 0.0370534432281154 74.1069080118219 
! Port Impedance50               0                50               0                

2.46             0.238305499803466 -12.8143290449259 0.960937821552037 77.6596795470259 0.960937821552038 77.6596795470259 0.238339932477484 -13.3017474755986 
! Gamma         !               0.0373571603677089 74.7143416823024 0.0373571601287735 74.714341683999  
! Port Impedance50               0                50               0                

2.48             0.246249461268449 -15.0937632312262 0.958875949680637 75.3706969930768 0.958875949680637 75.3706969930768 0.246283807288396 -15.5648585399733 
! Gamma         !               0.0376608772460318 75.3217753546504 0.0376608770323645 75.3217753561749 
! Port Impedance50               0                50               0                

2.5              0.253924770140246 -17.3665856309644 0.956817168064201 73.088994810855  0.956817168064203 73.0889948108551 0.253959076410862 -17.8223798671472 
! Gamma         !               0.0379645941247962 75.9292090269994 0.0379645939363999 75.9292090283501 
! Port Impedance50               0                50               0                

2.52             0.261327000783684 -19.6327604233622 0.954769105202668 70.8145375478105 0.95476910520267 70.8145375478105 0.261361309942533 -20.0741369075879 
! Gamma         !               0.0382683110022301 76.5366426993473 0.0382683108387351 76.5366427005258 
! Port Impedance50               0                50               0                

2.54             0.268452209150192 -21.8922906068664 0.952739217174999 68.5472618198869 0.952739217175   68.5472618198869 0.268486559897354 -22.3200135641433 
! Gamma         !               0.0385720278768258 77.1440763716923 0.0385720277375485 77.1440763727023 
! Port Impedance50               0                50               0                

2.56             0.27529690338445 -24.1452150569259 0.950734763351913 66.2870771948295 0.950734763351913 66.2870771948295 0.275331330704743 -24.5599456794153 
! Gamma         !               0.0388757447473223 77.7515100440334 0.0388757446313187 77.7515100448803 
! Port Impedance50               0                50               0                

2.58             0.281858013453116 -26.3916059313299 0.948762784779453 64.0338671493422 0.948762784779454 64.0338671493422 0.281892548757649 -26.7939156035401 
! Gamma         !               0.0391794616126862 78.3589437163694 0.0391794615188016 78.3589437170602 
! Port Impedance50               0                50               0                

2.6              0.288132860155282 -28.6315663385155 0.946830085150001 61.7874900876593 0.946830085150002 61.7874900876593 0.288167531363741 -29.0219475865098 
! Gamma         !               0.0394831784720934 78.9663773886991 0.0394831783990074 78.9663773892421 
! Port Impedance50               0                50               0                

2.62             0.294119123848354 -30.865228208503 0.944943214249535 59.547780409824  0.944943214249536 59.547780409824  0.294153955429221 -31.2441038075292 
! Gamma         !               0.0397868953249096 79.5738110610222 0.0397868952711768 79.5738110614268 
! Port Impedance50               0                50               0                

2.64             0.299814813195312 -33.0927503232407 0.943108453746945 57.3145496187852 0.943108453746946 57.3145496187852 0.299849826178021 -33.4604809027192 
! Gamma         !               0.0400906121706725 80.181244733338  0.0400906121347594 80.1812447336141 
! Port Impedance50               0                50               0                

2.66             0.305218234210643 -35.314316475264 0.941331805172924 55.0875874563275 0.941331805172925 55.0875874563275 0.305253446181126 -35.6712068876722 
! Gamma         !               0.0403943290090733 80.7886784056461 0.0403943289893908 80.7886784058044 