! Touchstone file exported from HFSS 2018.2.0
!        File:           C:/Users/10024/OneDrive - The University of Nottingham Ningbo China/Year 4/Final Year Project/HFSS project/Passive_Resonator_Antenna.aedt
!        Generated:      12:14:17 下午  3月 12, 2022
!        Design:         SMA_Thru
!        Project:        Passive_Resonator_Antenna
!        Setup:          Setup1
!        Solution:       Sweep
!
! Variables:
!        MW = 1mm
!        ThruL = 0.001mm
!        g = 0.2mm
!        subH = 0.8mm
!        subX = 20mm
!        subY = 10.001mm
!        tapW = 1mm
!
# GHZ S MA R 50.000000
! Modal data exported
! Port[1] = SMA_CONNECTOR1_1:1
! Port[2] = SMA_CONNECTOR2_1:1
1                0.0931783531461826 47.8143757607141 0.99511197914622 -41.8950677389418 0.995111979146221 -41.8950677389418 0.0931796384838996 48.4073440559718 
! Gamma         !               0.0151858380091433 30.3716836112083 0.0151858380091308 30.3716836111989 
! Port Impedance50               0                50               0                

1.02             0.0950252791956585 46.9703462653987 0.994923381546912 -42.7320941566219 0.994923381546912 -42.732094156622 0.0950262608713261 47.5628834093333 
! Gamma         !               0.01544760662783 30.9791173462247 0.0154476066278559 30.9791173463076 
! Port Impedance50               0                50               0                

1.04             0.0968712451777226 46.1263361719636 0.99473109930972 -43.5690669201972 0.99473109930972 -43.5690669201972 0.096871911274966 46.7186636921915 
! Gamma         !               0.015712017112615 31.5865510771383 0.0157120171126796 31.5865510773071 
! Port Impedance50               0                50               0                

1.06             0.098716234770195 45.2823533028362 0.994535137462145 -44.4059848936089 0.994535137462146 -44.405984893609 0.0987165734863817 45.8746793592455 
! Gamma         !               0.0159789723597372 32.1939848041302 0.0159789723598401 32.1939848043796 
! Port Impedance50               0                50               0                

1.08             0.100560231746668 44.4384050587066 0.994335501135088 -45.2428469388034 0.994335501135088 -45.2428469388034 0.100560231413551 45.0309254082281 
! Gamma         !               0.0162483769544968 32.8014185273742 0.0162483769546378 32.8014185276987 
! Port Impedance50               0                50               0                

1.1              0.102403219973228 43.5944984410695 0.994132195559939 -46.0796519155286 0.99413219555994 -46.0796519155286 0.102402869077272 44.1873973142881 
! Gamma         !               0.0165201372296751 33.4088522470354 0.0165201372298535 33.4088522474296 
! Port Impedance50               0                50               0                

1.12             0.104245183404942 42.7506400735741 0.993925226066089 -46.9163986811277 0.99392522606609 -46.9163986811277 0.10424447060735 43.3440909726157 
! Gamma         !               0.0167941613180439 34.0162859632732 0.0167941613182589 34.0162859637324 
! Port Impedance50               0                50               0                

1.14             0.106086106082124 41.9068362222441 0.993714598078815 -47.7530860903307 0.993714598078816 -47.7530860903308 0.106085020238554 42.5010026482322 
! Gamma         !               0.0170703591991179 34.6237196762388 0.0170703591993687 34.623719676758  
! Port Impedance50               0                50               0                

1.16             0.107925972126359 41.0630928146303 0.99350031711753 -48.5897129950445 0.99350031711753 -48.5897129950445 0.107924502306339 41.6581289319872 
! Gamma         !               0.0173486427403017 35.2311533860787 0.0173486427405873 35.2311533866537 
! Port Impedance50               0                50               0                

1.18             0.109764765736304 40.2194154579448 0.993282388794377 -49.4262782441422 0.993282388794378 -49.4262782441423 0.109762901242345 40.8154667019723 
! Gamma         !               0.0176289257326056 35.8385870929333 0.017628925732925 35.8385870935594 
! Port Impedance50               0                50               0                

1.2              0.111602471183263 39.3758094562302 0.993060818813161 -50.2627806832531 0.993060818813161 -50.2627806832532 0.111600201569647 39.9730130896334 
! Gamma         !               0.0179111239211062 36.4460207969383 0.0179111239214581 36.4460207976114 
! Port Impedance50               0                50               0                

1.22             0.113439072806515 38.5322798266101 0.992835612968562 -51.0992191545523 0.992835612968562 -51.0992191545523 0.113436387897773 39.1307654499918 
! Gamma         !               0.018195155030342 37.0534544982226 0.0181951550307251 37.0534544989389 
! Port Impedance50               0                50               0                

1.24             0.115274555008436 37.6888313146617 0.992606777145668 -51.9355924965519 0.992606777145668 -51.9355924965519 0.115271444917486 38.2887213354447 
! Gamma         !               0.018480938784833 37.6608881969125 0.0184809387852461 37.6608881976682 
! Port Impedance50               0                50               0                

1.26             0.117108902249379 36.8454684089567 0.992374317319755 -52.7718995438935 0.992374317319757 -52.7718995438935 0.11710535739531 37.4468784726936 
! Gamma         !               0.0187683969249309 38.2683218931285 0.0187683969253726 38.26832189392   
! Port Impedance50               0                50               0                

1.28             0.118942099042317 36.0021953548111 0.992138239556352 -53.6081391271427 0.992138239556352 -53.6081391271427 0.118938110167837 36.6052347424081 
! Gamma         !               0.0190574532181974 38.8757555869873 0.0190574532186661 38.8757555878111 
! Port Impedance50               0                50               0                

1.3              0.120774129947286 35.1590161672745 0.991898550011518 -54.4443100725852 0.991898550011518 -54.4443100725853 0.120769688135772 35.7637881612866 
! Gamma         !               0.0193480334665201 39.483189278602  0.0193480334670146 39.4831892794548 
! Port Impedance50               0                50               0                

1.32             0.122604979565578 34.3159346434118 0.991655254932382 -55.2804112020261 0.991655254932382 -55.2804112020262 0.122600076257747 34.9225368662164 
! Gamma         !               0.0196400655091774 40.0906229680801 0.0196400655096961 40.0906229689589 
! Port Impedance50               0                50               0                

1.34             0.124434632533722 33.4729543738985 0.991408360657874 -56.1164413325913 0.991408360657875 -56.1164413325913 0.124429259543893 34.0814791002744 
! Gamma         !               0.0199334792220566 40.6980566555275 0.0199334792225978 40.6980566564297 
! Port Impedance50               0                50               0                

1.36             0.126263073517245 32.6300787539752 0.991157873619685 -56.9523992765321 0.991157873619686 -56.9523992765322 0.126257223049176 33.2406132003496 
! Gamma         !               0.0202282065132412 41.3054903410453 0.0202282065138038 41.3054903419673 
! Port Impedance50               0                50               0                

1.38             0.128090287204206 31.7873109937917 0.990903800343398 -57.7882838410332 0.990903800343398 -57.7882838410333 0.128083951866486 32.399937586188  
! Gamma         !               0.0205241813151727 41.9129240247311 0.0205241813157549 41.9129240256707 
! Port Impedance50               0                50               0                

1.4              0.129916258298519 30.9446541281722 0.990646147449824 -58.6240938280237 0.990646147449825 -58.6240938280238 0.129909431119496 31.5594507506912 
! Gamma         !               0.0208213395735952 42.5203577066796 0.0208213395741955 42.5203577076343 
! Port Impedance50               0                50               0                

1.42             0.131740971513066 30.10211102584   0.990384921656503 -59.4598280339919 0.990384921656503 -59.4598280339919 0.131733645955292 30.7191512513224 
! Gamma         !               0.0211196192334888 43.127791386982  0.0211196192341058 43.1277913879492 
! Port Impedance50               0                50               0                

1.44             0.133564411562584 29.2596843981225 0.990120129779371 -60.2954852498039 0.990120129779372 -60.295485249804 0.133556581536767 29.8790377024887 
! Gamma         !               0.0214189602221929 43.7352250657257 0.021418960222825 43.7352250667034 
! Port Impedance50               0                50               0                

1.46             0.135386563156365 28.4173768071774 0.989851778734589 -61.1310642605264 0.98985177873459 -61.1310642605265 0.135378223034784 29.039108768787  
! Gamma         !               0.0217193044299157 44.3426587429965 0.0217193044305618 44.3426587439821 
! Port Impedance50               0                50               0                

1.48             0.137207410990737 27.5751906737578 0.989579875540521 -61.9665638452527 0.989579875540521 -61.9665638452527 0.137198555620126 28.1993631590165 
! Gamma         !               0.0220205956878288 44.9500924188757 0.022020595688487 44.9500924198676 
! Port Impedance50               0                50               0                

1.5              0.139026939741344 26.7331282845523 0.98930442731985 -62.8019827769341 0.98930442731985 -62.8019827769342 0.13901756445521 27.3597996208685 
! Gamma         !               0.0223227797439296 45.5575260934424 0.0223227797445987 45.5575260944384 
! Port Impedance50               0                50               0                

1.52             0.140845134055249 25.89119179912   0.989025441301837 -63.6373198222152 0.989025441301837 -63.6373198222153 0.140835234685608 26.5204169362207 
! Gamma         !               0.0226258042368606 46.1649597667731 0.0226258042375393 46.1649597677714 
! Port Impedance50               0                50               0                

1.54             0.142661978542824 25.0493832564483 0.988742924824705 -64.4725737412736 0.988742924824705 -64.4725737412736 0.142651551431331 25.6812139169688 
! Gamma         !               0.0229296186678618 46.7723934389411 0.0229296186685488 46.7723934399398 
! Port Impedance50               0                50               0                

1.56             0.144477457769469 24.2077045811568 0.988456885338144 -65.3077432876644 0.988456885338145 -65.3077432876645 0.144466499777926 24.8421894013375 
! Gamma         !               0.0232341743710288 47.3798271100169 0.0232341743717225 47.3798271110147 
! Port Impedance50               0                50               0                

1.58             0.146291556247137 23.3661575893681 0.988167330405944 -66.1428272081703 0.988167330405943 -66.1428272081703 0.146280064767363 24.0033422506185 
! Gamma         !               0.0235394244820431 47.9872607800688 0.0235394244827424 47.9872607810641 
! Port Impedance50               0                50               0                

1.6              0.1481042584257  22.5247439942694 0.98787426770872 -66.9778242426552 0.98787426770872 -66.9778242426553 0.148092231388732 23.1646713462945 
! Gamma         !               0.0238453239055368 48.5946944491624 0.0238453239062404 48.5946944501538 
! Port Impedance50               0                50               0                

1.62             0.149915548684132 21.6834654113842 0.987577705046769 -67.8127331239248 0.987577705046769 -67.8127331239249 0.149902984568749 22.3261755875051 
! Gamma         !               0.0241518292812421 49.2021281173603 0.0241518292819489 49.2021281183464 
! Port Impedance50               0                50               0                

1.64             0.151725411321533 20.8423233635712 0.987277650343005 -68.6475525775908 0.987277650343006 -68.6475525775908 0.151712309162077 21.4878538888246 
! Gamma         !               0.0244588989490763 49.8095617847231 0.0244588989497852 49.8095617857027 
! Port Impedance50               0                50               0                

1.66             0.153533830547998 20.0013192857726 0.986974111646005 -69.4822813219416 0.986974111646005 -69.4822813219416 0.153520189941479 20.6497051783177 
! Gamma         !               0.0247664929133007 50.4169954513094 0.0247664929140105 50.4169954522813 
! Port Impedance50               0                50               0                

1.68             0.155340790475336 19.1604545295246 0.986667097133134 -70.316918067818 0.986667097133135 -70.316918067818 0.155326611587793 19.8117283958487 
! Gamma         !               0.0250745728058887 51.0244291171746 0.0250745728065984 51.0244291181377 
! Port Impedance50               0                50               0                

1.7              0.157146275107638 18.3197303672503 0.986356615113778 -71.1514615184949 0.986356615113777 -71.151461518495 0.157131558679755 18.9739224916194 
! Gamma         !               0.0253831018492295 51.6318627823728 0.0253831018499379 51.6318627833262 
! Port Impedance50               0                50               0                

1.72             0.158950268331721 17.4791479963464 0.986042674032626 -71.9859103695689 0.986042674032626 -71.9859103695689 0.158935015683666 18.1362864249138 
! Gamma         !               0.0256920448182893 52.2392964469546 0.0256920448189957 52.2392964478973 
! Port Impedance50               0                50               0                

1.74             0.160752753907435 16.6387085430814 0.985725282473065 -72.8202633088511 0.985725282473064 -72.8202633088511 0.160736966942913 17.2988191630344 
! Gamma         !               0.0260013680023436 52.8467301109699 0.0260013680030469 52.8467301119012 
! Port Impedance50               0                50               0                

1.76             0.162553715457851 15.798413066315  0.985404449160616 -73.6545190162668 0.985404449160618 -73.6545190162669 0.162537396667357 16.4615196804094 
! Gamma         !               0.0263110391663875 53.4541637744652 0.0263110391670869 53.4541637753841 
! Port Impedance50               0                50               0                

1.78             0.164353136459344 14.9582625610561 0.985080182966469 -74.4886761637612 0.985080182966468 -74.4886761637613 0.164336288922595 15.6243869578599 
! Gamma         !               0.0266210275123274 54.0615974374862 0.0266210275130221 54.061597438392  
! Port Impedance50               0                50               0                

1.8              0.166151000231561 14.1182579618653 0.984752492911048 -75.3227334152108 0.984752492911048 -75.3227334152108 0.166133627619096 14.7874199820112 
! Gamma         !               0.0269313036400469 54.6690311000757 0.0269313036407361 54.6690311009677 
! Port Impedance50               0                50               0                

1.82             0.167947289927303 13.2784001461186 0.984421388167666 -76.1566894263418 0.984421388167667 -76.1566894263419 0.167929396501242 13.9506177448388 
! Gamma         !               0.0272418395084378 55.2764647622745 0.0272418395091206 55.2764647631523 
! Port Impedance50               0                50               0                

1.84             0.169741988522316 12.4386899371385 0.98408687806622 -76.990542844655 0.984086878066219 -76.990542844655 0.169723579136263 13.1139792433376 
! Gamma         !               0.0275526083964772 55.8838984241222 0.0275526083971531 55.8838984249851 
! Port Impedance50               0                50               0                

1.86             0.171535078805012 11.5991281072038 0.98374897209693 -77.8242923093565 0.98374897209693 -77.8242923093566 0.171516158903084 12.2775034793059 
! Gamma         !               0.0278635848644304 56.4913320856562 0.0278635848650987 56.4913320865038 
! Port Impedance50               0                50               0                

1.88             0.173326543366112 10.7597153804476 0.983407679914144 -78.6579364512965 0.983407679914145 -78.6579364512965 0.173307118981096 11.4411894592344 
! Gamma         !               0.0281747447152489 57.0987657469121 0.0281747447159089 57.0987657477438 
! Port Impedance50               0                50               0                

1.9              0.175116364588243 9.92045243564943 0.98306301134017 -79.491473892913 0.98306301134017 -79.4914738929131 0.175096442338867 10.6050361942939 
! Gamma         !               0.0284860649562304 57.7061994079237 0.0284860649568816 57.7061994087393 
! Port Impedance50               0                50               0                

1.92             0.176904524635488 9.08133990893259 0.98271497636914 -80.3249032481843 0.98271497636914 -80.3249032481844 0.176884111722785 9.76904270041516 
! Gamma         !               0.0287975237610029 58.3136330687232 0.0287975237616447 58.3136330695223 
! Port Impedance50               0                50               0                

1.94             0.178691005442881 8.24237839637053 0.982363585170928 -81.1582231225868 0.982363585170928 -81.1582231225868 0.178670109645667 8.93320799845368 
! Gamma         !               0.0291091004318863 58.9210667293416 0.0291091004325183 58.9210667301239 
! Port Impedance50               0                50               0                

1.96             0.180475788705905 7.40356845651164 0.982008848095075 -81.9914321130605 0.982008848095075 -81.9914321130606 0.180454418375337 8.09753111443416 
! Gamma         !               0.0294207753626859 59.5285003898075 0.0294207753633077 59.5285003905728 
! Port Impedance50               0                50               0                

1.98             0.182258855869951 6.56491061282628 0.98165077567475 -82.8245288079818 0.981650775674749 -82.8245288079818 0.18223701992317 7.26201107987016 
! Gamma         !               0.0297325300019603 60.1359340501488 0.0297325300025714 60.1359340508968 
! Port Impedance50               0                50               0                

2                0.184040188119783 5.72640535608355 0.981289378630726 -83.6575117871426 0.981289378630726 -83.6575117871426 0.184017896032653 6.42664693215296 
! Gamma         !               0.0300443468168093 60.7433677103914 0.0300443468174093 60.7433677111221 
! Port Impedance50               0                50               0                

2.02             0.185819766369003 4.88805314666204 0.980924667875372 -84.4903796217369 0.980924667875372 -84.490379621737 0.185797028167918 5.59143771500647 
! Gamma         !               0.0303562092572174 61.3508013705599 0.030356209257806 61.3508013712729 
! Port Impedance50               0                50               0                

2.04             0.187597571249547 4.04985441679902 0.980556654516659 -85.323130874355 0.980556654516659 -85.3231308743551 0.187574397502323 4.75638247900336 
! Gamma         !               0.0306681017209869 61.9582350306775 0.0306681017215638 61.9582350313729 
! Port Impedance50               0                50               0                

2.06             0.189373583101195 3.21180957278361 0.980185349862161 -86.1557640989837 0.980185349862161 -86.1557640989838 0.189349984907045 3.92148028213878 
! Gamma         !               0.030980009519292 62.5656686907664 0.0309800095198569 62.5656686914441 
! Port Impedance50               0                50               0                

2.08             0.191147781961131 2.37391899709669 0.979810765423076 -86.9882778410147 0.979810765423076 -86.9882778410148 0.191123770939719 3.08673019045828 
! Gamma         !               0.031291918842878 63.1731023508469 0.0312919188434307 63.173102351507  
! Port Impedance50               0                50               0                

2.1              0.192920147553556 1.53618305050188 0.979432912918225 -87.8206706372599 0.979432912918225 -87.82067063726  0.192895735833134 2.25213127873623 
! Gamma         !               0.0316038167289308 63.7805360109387 0.031603816729471 63.7805360115809 
! Port Impedance50               0                50               0                

2.12             0.19469065927936 0.698602074090771 0.97905180427806 -88.6529410159733 0.97905180427806 -88.6529410159733 0.194665859484002 1.41768263120175 
! Gamma         !               0.0319156910286346 64.3879696710601 0.0319156910291622 64.3879696716845 
! Port Impedance50               0                50               0                

2.14             0.19645929620588 -0.138823608714845 0.978667451648652 -89.4850874968807 0.978667451648651 -89.4850874968807 0.196434121441807 0.583383342309227 
! Gamma         !               0.0322275303754359 64.9954033312279 0.0322275303759508 64.9954033318346 
! Port Impedance50               0                50               0                

2.16             0.198226037056738 -0.976093690200959 0.978279867395662 -90.3171085912162 0.978279867395662 -90.3171085912162 0.198200500897744 -0.250767482449867 
! Gamma         !               0.0325393241540268 65.6028369914582 0.0325393241545288 65.6028369920474 
! Port Impedance50               0                50               0                

2.18             0.199990860201784 -1.81320787643704 0.977889064108304 -91.1490028017658 0.977889064108305 -91.1490028017658 0.199964976673784 -1.08477072569653 
! Gamma         !               0.0328510624700592 66.2102706517661 0.0328510624705482 66.2102706523377 
! Port Impedance50               0                50               0                

2.2              0.201753743647161 -2.65016588538748 0.977495054603273 -91.9807686229178 0.977495054603272 -91.9807686229178 0.20172752721185 -1.91862725727768 
! Gamma         !               0.0331627361205985 66.8177043121653 0.0331627361210745 66.8177043127194 
! Port Impedance50               0                50               0                

2.22             0.203514665025478 -3.48696744505697 0.977097851928645 -92.8124045407204 0.977097851928644 -92.8124045407204 0.203488130563133 -2.75233793334636 
! Gamma         !               0.0334743365653231 67.4251379726689 0.033474336565786 67.4251379732057 
! Port Impedance50               0                50               0                

2.24             0.205273601586139 -4.32361229166814 0.976697469367757 -93.6439090329461 0.976697469367756 -93.6439090329462 0.205246764377568 -3.58590359541148 
! Gamma         !               0.0337858558984748 68.0325716332886 0.0337858558989244 68.0325716338083 
! Port Impedance50               0                50               0                

2.26             0.207030530185812 -5.16010016786991 0.97629392044304 -94.4752805691627 0.976293920443039 -94.4752805691627 0.207003405893463 -4.41932506935911 
! Gamma         !               0.0340972868215605 68.6400052940358 0.034097286821997 68.6400052945386 
! Port Impedance50               0                50               0                

2.28             0.208785427279065 -5.9964308209758 0.975887218919817 -95.3065176108111 0.975887218919817 -95.3065176108111 0.208758031927323 -5.25260316444833 
! Gamma         !               0.0344086226168081 69.2474389549205 0.0344086226172315 69.2474389554065 
! Port Impedance50               0                50               0                

2.3              0.210538268909182 -6.83260400123044 0.97547737881006 -96.1376186112898 0.97547737881006 -96.1376186112898 0.210510618863852 -6.08573867228384 
! Gamma         !               0.0347198571213729 69.8548726159522 0.0347198571217832 69.8548726164217 
! Port Impedance50               0                50               0                

2.32             0.212289030699156 -7.66861946010467 0.975064414376099 -96.9685820160457 0.975064414376097 -96.9685820160457 0.212261142646176 -6.91873236576782 
! Gamma         !               0.0350309847022932 70.4623062771396 0.0350309847026906 70.4623062775926 
! Port Impedance50               0                50               0                

2.34             0.214037687842889 -8.50447694861752 0.974648340134277 -97.7994062626712 0.974648340134276 -97.7994062626712 0.214009578766282 -7.75158499803333 
! Gamma         !               0.0353420002321907 71.0697399384906 0.0353420002325751 71.0697399389274 
! Port Impedance50               0                50               0                

2.36             0.215784215096609 -9.34017621568502 0.974229170858564 -98.6300897810078 0.974229170858564 -98.6300897810078 0.215755902255687 -8.5842973013619 
! Gamma         !               0.0356528990657084 71.6771736000122 0.03565289906608 71.677173600433  
! Port Impedance50               0                50               0                

2.38             0.217528586770499 -10.1757170064958 0.973806921584106 -99.4606309932554 0.973806921584105 -99.4606309932555 0.217500087676367 -9.41686998608757 
! Gamma         !               0.035963677016682 72.2846072617107 0.0359636770170407 72.284607262116  
! Port Impedance50               0                50               0                

2.4              0.219270776720576 -11.0110990609129 0.973381607610711 -100.291028314088 0.973381607610711 -100.291028314088 0.219242109111939 -10.2493037394895 
! Gamma         !               0.0362743303360339 72.8920409235924 0.03627433033638 72.8920409239822 
! Port Impedance50               0                50               0                

2.42             0.221010758340802 -11.8463221119024 0.97295324450629 -101.121280150774 0.972953244506289 -101.121280150774 0.220981940159119 -11.0815992246756 
! Gamma         !               0.0365848556903834 73.4994745856619 0.036584855690717 73.4994745860366 
! Port Impedance50               0                50               0                

2.44             0.222748504555473 -12.6813858839877 0.972521848110212 -101.951384903305 0.972521848110212 -101.951384903305 0.22271955391948 -11.9137570794604 
! Gamma         !               0.0368952501413616 74.1069082479243 0.0368952501416828 74.1069082482839 
! Port Impedance50               0                50               0                

2.46             0.224483987811859 -13.5162900917319 0.972087434536618 -102.781340964526 0.972087434536617 -102.781340964526 0.22445492299149 -12.7457779152376 
! Gamma         !               0.0372055111256213 74.7143419103832 0.0372055111259302 74.7143419107284 
! Port Impedance50               0                50               0                

2.48             0.226217180073146 -14.351034438246 0.971650020177642 -103.611146720272 0.971650020177642 -103.611146720272 0.226188019462886 -13.5776623158516 
! Gamma         !               0.0375156364355303 75.3217755730423 0.0375156364358272 75.3217755733731 
! Port Impedance50               0                50               0                

2.5              0.227948052811649 -15.1856186137254 0.971209621706579 -104.440800549516 0.971209621706579 -104.440800549516 0.227918814903359 -14.4094108364691 
! Gamma         !               0.0378256242005364 75.9292092359045 0.0378256242008214 75.9292092362213 
! Port Impedance50               0                50               0                

2.52             0.22967657700235 -16.0200422940142 0.970766256080972 -105.270300824509 0.970766256080972 -105.270300824509 0.229647280357584 -15.2410240024539 
! Gamma         !               0.0381354728691914 76.5366428989724 0.0381354728694648 76.5366428992754 
! Port Impedance50               0                50               0                

2.54             0.23140272311673 -16.8543051391988 0.970319940545628 -106.099645910938 0.970319940545627 -106.099645910938 0.231373386338597 -16.072502308246 
! Gamma         !               0.0384451811918219 77.1440765622479 0.0384451811920838 77.1440765625374 
! Port Impedance50               0                50               0                

2.56             0.233126461116944 -17.6884067922301 0.969870692635558 -106.928834168079 0.969870692635558 -106.928834168079 0.233097102821534 -16.9038462162491 
! Gamma         !               0.0387547482038326 77.7515102257327 0.0387547482040832 77.7515102260091 
! Port Impedance50               0                50               0                

2.58             0.234847760450304 -18.5223468775764 0.969418530178848 -107.757863948962 0.969418530178847 -107.757863948962 0.234818399237746 -17.7350561557271 
! Gamma         !               0.039064173209629 78.358943889428  0.0390641732098685 78.3589438896914 
! Port Impedance50               0                50               0                

2.6              0.23656659004413 -19.3561249999077 0.968963471299435 -108.586733600531 0.968963471299433 -108.586733600531 0.236537244469282 -18.566132521713 
! Gamma         !               0.0393734557671463 78.9663775533344 0.0393734557673749 78.9663775535853 
! Port Impedance50               0                50               0                

2.62             0.238282918300936 -20.1897407428113 0.968505534419829 -109.415441463816 0.968505534419829 -109.415441463816 0.238253606843784 -19.397075673932 
! Gamma         !               0.039682595672969 79.5738112174526 0.0396825956731869 79.5738112176914 
! Port Impedance50               0                50               0                

2.64             0.239996713093978 -21.0231936675412 0.968044738263739 -110.243985874108 0.968044738263738 -110.243985874108 0.239967454129771 -20.2278859357407 
! Gamma         !               0.0399915929480282 80.1812448817827 0.0399915929482357 80.1812448820093 
! Port Impedance50               0                50               0                

2.66             0.241707941763174 -21.8564833118004 0.967581101858626 -111.072365161128 0.967581101858625 -111.072365161128 0.241678753532332 -21.0585635930862 