! Touchstone file exported from HFSS 2018.2.0
!        File:           C:/Users/10024/OneDrive - The University of Nottingham Ningbo China/Year 4/Final Year Project/HFSS project/Passive_Resonator_Antenna.aedt
!        Generated:      12:15:21 下午  3月 12, 2022
!        Design:         SMA_Thru
!        Project:        Passive_Resonator_Antenna
!        Setup:          Setup1
!        Solution:       Sweep
!
! Variables:
!        MW = 1mm
!        ThruL = 13mm
!        g = 0.2mm
!        subH = 0.8mm
!        subX = 20mm
!        subY = 23mm
!        tapW = 1mm
!
# GHZ S MA R 50.000000
! Modal data exported
! Port[1] = SMA_CONNECTOR1_1:1
! Port[2] = SMA_CONNECTOR2_1:1
1                0.236533084480658 23.9043541943465 0.970229265152889 -66.0595171567066 0.970229265152889 -66.0595171567066 0.236533720740804 23.7884700107053 
! Gamma         !               0.0151858380091428 30.3716836111719 0.0151858380091333 30.3716836112104 
! Port Impedance50               0                50               0                

1.02             0.240225633011583 22.6095177090711 0.969280080793968 -67.3495620539641 0.969280080793969 -67.3495620539641 0.240226335951026 22.4950624478663 
! Gamma         !               0.0154804365703625 30.9791172968394 0.0154804365704006 30.9791172969358 
! Port Impedance50               0                50               0                

1.04             0.243864248907227 21.3162664837928 0.968328937070158 -68.6381005186076 0.968328937070158 -68.6381005186076 0.243865018378546 21.2031536931807 
! Gamma         !               0.015776190109198 31.5865509807968 0.0157761901092795 31.5865509809437 
! Port Impedance50               0                50               0                

1.06             0.247448507119947 20.0245991025117 0.967376565275818 -69.9251325010477 0.967376565275818 -69.9251325010477 0.247449342862193 19.9127463271776 
! Gamma         !               0.0160730042225338 32.193984663186  0.0160730042226544 32.1939846633769 
! Port Impedance50               0                50               0                

1.08             0.250978005012867 18.7345129725722 0.966423690866071 -71.2106591469262 0.966423690866071 -71.2106591469262 0.250978906654809 18.6238414370128 
! Gamma         !               0.0163707901306381 32.8014183441407 0.0163707901307939 32.8014183443695 
! Port Impedance50               0                50               0                

1.1              0.254452361812446 17.4460043367721 0.965471032913077 -72.4946827820343 0.965471032913076 -72.4946827820342 0.2544533288762  17.3364386570191 
! Gamma         !               0.0166694644712354 33.4088520237845 0.0166694644714222 33.4088520240458 
! Port Impedance50               0                50               0                

1.12             0.257871218046048 16.159068287153  0.964519303587313 -73.7772068964511 0.964519303587313 -73.7772068964511 0.257872249951049 16.0505362078734 
! Gamma         !               0.0169689490899404 34.0162857022337 0.0169689490901545 34.0162857025226 
! Port Impedance50               0                50               0                

1.14             0.261234234966167 14.8736987802511 0.963569207663708 -75.058236127956 0.963569207663708 -75.058236127956 0.261235331033506 14.7661309345336 
! Gamma         !               0.0172691708285237 34.6237193795974 0.0172691708287617 34.6237193799089 
! Port Impedance50               0                50               0                

1.16             0.264541093962966 13.5898886536205 0.962621442052409 -76.3377762447654 0.962621442052408 -76.3377762447654 0.264542253420059 13.4832183430824 
! Gamma         !               0.0175700613123308 35.2311530559761 0.0175700613125893 35.2311530563066 
! Port Impedance50               0                50               0                

1.18             0.267791495966735 12.3076296434636 0.961676695353939 -77.615834127645 0.961676695353939 -77.615834127645 0.267792717952326 12.2017926365941 
! Gamma         !               0.0178715567380419 35.8385867314649 0.0178715567383177 35.8385867318099 
! Port Impedance50               0                50               0                

1.2              0.270985160841822 11.026912403233  0.960735647438436 -78.8924177514466 0.960735647438435 -78.8924177514466 0.270986444411302 10.9218467501273 
! Gamma         !               0.018173597662833 36.4460204061512 0.018173597663123 36.4460204065078 
! Port Impedance50               0                50               0                

1.22             0.274121826773576 9.7477265230755  0.959798969048594 -80.1675361661188 0.959798969048594 -80.1675361661187 0.274123170904591 9.64337238493095 
! Gamma         !               0.0184761287958739 37.053454080116  0.0184761287961753 37.0534540804808 
! Port Impedance50               0                50               0                

1.24             0.277201249649731 8.4700605500164  0.958867321425927 -81.4411994772377 0.958867321425926 -81.4411994772376 0.277202653248091 8.36636004194043 
! Gamma         !               0.01877909879298 37.6608877534355 0.0187790987932904 37.6608877538059 
! Port Impedance50               0                50               0                

1.26             0.280223202437702 7.19390200878449 0.957941355959871 -82.7134188261053 0.95794135595987 -82.7134188261053 0.280224664343541 7.09079905462741 
! Gamma         !               0.0190824600551313 38.26832142618   0.0190824600554481 38.2683214265532 
! Port Impedance50               0                50               0                

1.28             0.283187474559115 5.91923742319492 0.957021713859282 -83.9842063694587 0.957021713859281 -83.9842063694586 0.283188993553308 5.81667762125922 
! Gamma         !               0.0193861685314642 38.8757550984134 0.0193861685317854 38.8757550987872 
! Port Impedance50               0                50               0                

1.3              0.286093871262913 4.64605233801203 0.956109025845746 -85.2535752588343 0.956109025845745 -85.2535752588342 0.286095446073719 4.54398283661443 
! Gamma         !               0.0196901835272508 39.4831887701962 0.019690183527574 39.4831887705688 
! Port Impedance50               0                50               0                

1.32             0.288942212998286 3.37433134122434 0.955203911868189 -86.5215396196285 0.955203911868188 -86.5215396196284 0.288943842308202 3.27270072319318 
! Gamma         !               0.0199944675172924 40.0906224415833 0.0199944675176159 40.0906224419531 
! Port Impedance50               0                50               0                

1.34             0.291732334788626 2.104058086668   0.954306980838166 -87.7881145298958 0.954306980838165 -87.7881145298957 0.291734017241427 2.00281626195503 
! Gamma         !               0.0202989859650745 40.6980561126259 0.0202989859653966 40.698056112991  
! Port Impedance50               0                50               0                

1.36             0.294464085607664 0.835215316942268 0.953418830385222 -89.0533159989215 0.953418830385221 -89.0533159989214 0.294465819815611 0.734313422610562 
! Gamma         !               0.0206037071479564 41.30548978337   0.0206037071482756 41.3054897837293 
! Port Impedance50               0                50               0                

1.38             0.297137327758864 -0.432215113435989 0.952540046631679 -90.3171609456078 0.952540046631678 -90.3171609456078 0.297139112310056 -0.53282480651095 
! Gamma         !               0.0209086019886035 41.9129234538587 0.0209086019889185 41.9129234542108 
! Port Impedance50               0                50               0                

1.4              0.299751936259126 -1.69825221468687 0.951671203986184 -91.5796671767073 0.951671203986183 -91.5796671767072 0.299753769724977 -1.79861638900127 
! Gamma         !               0.0212136438928102 42.5203571241312 0.0212136438931197 42.5203571244749 
! Port Impedance50               0                50               0                

1.42             0.302307798227751 -2.96291583827581 0.950812864955345 -92.840853364938 0.950812864955345 -92.8408533649379 0.302309679170569 -3.06308021130627 
! Gamma         !               0.0215188085938082 43.1277907942229 0.0215188085941111 43.1277907945576 
! Port Impedance50               0                50               0                

1.44             0.30480481228162 -4.22622665331671 0.949965579972747 -94.100739027012 0.949965579972745 -94.100739027012 0.304806739262256 -4.32623605404194 
! Gamma         !               0.0218240740031072 43.7352244641663 0.0218240740034025 43.7352244644914 
! Port Impedance50               0                50               0                

1.46             0.307242887937412 -5.48820612290847 0.949129887244641 -95.3593445016082 0.949129887244639 -95.3593445016082 0.307244859522973 -5.58810456368598 
! Gamma         !               0.0221294200678721 44.3426581339907 0.022129420068159 44.3426581343056 
! Port Impedance50               0                50               0                

1.48             0.309621945021719 -6.7488764804402 0.948306312611608 -96.6166909273162 0.948306312611606 -96.6166909273162 0.30962395979331 -6.84870722463903 
! Gamma         !               0.0224348286348036 44.9500918037236 0.0224348286350813 44.9500918040276 
! Port Impedance50               0                50               0                

1.5              0.311941913089762 -8.0082607058976 0.947495369425442 -97.8728002205802 0.947495369425441 -97.8728002205801 0.311943969650234 -8.10806633165212 
! Gamma         !               0.0227402833204599 45.5575254733884 0.0227402833207279 45.557525473681  
! Port Impedance50               0                50               0                

1.52             0.314202730853464 -9.26638250220178 0.946697558440557 -99.1276950536662 0.946697558440555 -99.1276950536661 0.314204827835154 -9.36620496261817 
! Gamma         !               0.0230457693879223 46.1649591430069 0.02304576938818 46.1649591432882 
! Port Impedance50               0                50               0                

1.54             0.316404345619488 -10.5232662716078 0.945913367719161 -100.381398832677 0.94591336771916 -100.381398832677 0.316406481691921 -10.6231469517262 
! Gamma         !               0.0233512736296916 46.7723928125984 0.0233512736299386 46.7723928128681 
! Port Impedance50               0                50               0                

1.56             0.318546712737873 -11.7789370921894 0.94514327254949 -101.633935675638 0.945143272549489 -101.633935675637 0.31854888661541 -11.8789168629791 
! Gamma         !               0.0236567842566748 47.3798264821806 0.0236567842569108 47.3798264824387 
! Port Impedance50               0                50               0                

1.58             0.320629795061815 -13.0334206944346 0.944387735376373 -102.885330390665 0.944387735376372 -102.885330390664 0.320632005511212 -13.1335399640738 
! Gamma         !               0.0239622907931113 47.987260151769  0.0239622907933362 47.987260152015  
! Port Impedance50               0                50               0                

1.6              0.322653562419085 -14.2867434379723 0.943647205743388 -104.135608454251 0.943647205743387 -104.135608454251 0.322655808266965 -14.3870422006471 
! Gamma         !               0.0242677839772667 48.5946938213769 0.0242677839774803 48.5946938216111 
! Port Impedance50               0                50               0                

1.62             0.324617991095573 -15.538932288452 0.942922120245921 -105.384795989668 0.942922120245921 -105.384795989668 0.32462027123577 -15.6394501708864 
! Gamma         !               0.0245732556677181 49.2021274910165 0.0245732556679203 49.2021274912391 
! Port Impedance50               0                50               0                

1.64             0.326523063331361 -16.7900147945944 0.942212902494417 -106.632919745511 0.942212902494417 -106.632919745511 0.326525376732117 -16.8907911005077 
! Gamma         !               0.0248786987550412 49.8095611606981 0.0248786987552319 49.8095611609089 
! Port Impedance50               0                50               0                

1.66             0.328368766829705 -18.040019065428 0.941519963087104 -107.880007074399 0.941519963087103 -107.880007074398 0.328371112540717 -18.1410928181025 
! Gamma         !               0.025184107078705 50.416994830431  0.0251841070788843 50.4169948306303 
! Port Impedance50               0                50               0                

1.68             0.33015509427927 -19.2889737477293 0.940843699591543 -109.126085911832 0.940843699591542 -109.126085911832 0.330157471438551 -19.3903837308537 
! Gamma         !               0.0254894753489772 51.0244285002228 0.0254894753491451 51.0244285004107 
! Port Impedance50               0                50               0                

1.7              0.331882042889916 -20.5369080036772 0.940184496534311 -110.371184755237 0.94018449653431 -110.371184755237 0.331884450730453 -20.6386928006224 
! Gamma         !               0.025794799073636 51.6318621700802 0.0257947990737926 51.6318621702572 
! Port Impedance50               0                50               0                

1.72             0.333549613942298 -21.7838514887348 0.939542725398157 -111.615332643192 0.939542725398156 -111.615332643192 0.333552051798508 -21.8860495204055 
! Gamma         !               0.0261000744892882 52.2392958400089 0.0261000744894338 52.2392958401751 
! Port Impedance50               0                50               0                

1.74             0.335157812351531 -23.0298343297683 0.938918744626001 -112.858559134841 0.938918744626   -112.858559134841 0.335160279665464 -23.1324838911645 
! Gamma         !               0.0264052984970894 52.8467295100134 0.0264052984972242 52.8467295101691 
! Port Impedance50               0                50               0                

1.76             0.336706646245084 -24.2748871034111 0.938312899631146 -114.100894289519 0.938312899631145 -114.100894289519 0.336709142572395 -24.3780263990257 
! Gamma         !               0.0267104686026668 53.4541631800973 0.0267104686027909 53.4541631802428 
! Port Impedance50               0                50               0                

1.78             0.338196126555116 -25.5190408146812 0.937725522813089 -115.342368646575 0.937725522813088 -115.342368646575 0.338198651570763 -25.6227079928488 
! Gamma         !               0.0270155828600439 54.0615968502633 0.0270155828601577 54.0615968503989 
! Port Impedance50               0                50               0                

1.8              0.339626266625362 -26.762326875857 0.937156933578348 -116.58301320541 0.937156933578346 -116.58301320541 0.339628820129025 -26.8665600621657 
! Gamma         !               0.0273206398193733 54.669030520514  0.0273206398194771 54.6690305206401 
! Port Impedance50               0                50               0                

1.82             0.340997081832712 -28.0047770856157 0.936607438365724 -117.822859405724 0.936607438365723 -117.822859405724 0.340999663753924 -28.1096144154845 
! Gamma         !               0.0276256384782857 55.2764641908506 0.0276256384783799 55.2764641909673 
! Port Impedance50               0                50               0                

1.84             0.342308589223556 -29.2464236084383 0.936077330675446 -119.061939107983 0.936077330675446 -119.061939107983 0.342311199626526 -29.3519032589573 
! Gamma         !               0.0279305782366664 55.8838978612742 0.0279305782367511 55.883897861382  
! Port Impedance50               0                50               0                

1.86             0.343560807164986 -30.4872989542819 0.935566891101672 -120.300284574104 0.93556689110167 -120.300284574104 0.343563446253104 -30.5934591754085 
! Gamma         !               0.0282354588546789 56.4913315317847 0.0282354588547545 56.491331531884  
! Port Impedance50               0                50               0                

1.88             0.344753755010883 -31.7274359585204 0.93507638736781 -121.537928448346 0.935076387367809 -121.537928448346 0.344756423130898 -31.8343151037191 
! Gamma         !               0.0285402804138585 57.0987652023824 0.0285402804139255 57.0987652024733 
! Port Impedance50               0                50               0                

1.9              0.345887452782936 -32.9668677621537 0.934606074364199 -122.774903738431 0.934606074364198 -122.774903738431 0.345890150428798 -33.0745043185634 
! Gamma         !               0.0288450432811047 57.7061988730665 0.0288450432811633 57.7061988731497 
! Port Impedance50               0                50               0                

1.92             0.346961920866619 -34.205627792282 0.934156194187629 -124.011243796868 0.934156194187628 -124.011243796868 0.346964648682967 -34.3140604104907 
! Gamma         !               0.0291497480754063 58.3136325438363 0.029149748075457 58.3136325439121 
! Port Impedance50               0                50               0                

1.94             0.347977179722081 -35.4437497428438 0.933726976182288 -125.24698230249 0.933726976182288 -125.24698230249 0.347979938507384 -35.5530172663483 
! Gamma         !               0.0294543956371427 58.9210662146903 0.0294543956371857 58.9210662147591 
! Port Impedance50               0                50               0                

1.96             0.348933249609996 -36.6812675556139 0.933318636981683 -126.482153242203 0.933318636981682 -126.482153242203 0.348936040319327 -36.7914090500391 
! Gamma         !               0.0297589869998057 59.5284998856274 0.0297589869998416 59.5284998856892 
! Port Impedance50               0                50               0                

1.98             0.349830150332298 -37.9182154014536 0.932931380551115 -127.716790892931 0.932931380551113 -127.716790892931 0.349832974079738 -38.0292701836037 
! Gamma         !               0.0300635233639982 60.1359335566453 0.0300635233640271 60.1359335567008 
! Port Impedance50               0                50               0                

2                0.350667900987788 -39.1546276618123 0.932565398230329 -128.950929803762 0.932565398230328 -128.950929803762 0.350670759048458 -39.2666353286236 
! Gamma         !               0.0303680060735665 60.7433672277425 0.030368006073589 60.7433672277919 
! Port Impedance50               0                50               0                

2.02             0.351446519742559 -40.3905389104683 0.932220868775977 -130.184604778288 0.932220868775977 -130.184604778288 0.351449413554271 -40.5035393679335 
! Gamma         !               0.0306724365937355 61.3508008989167 0.0306724365937519 61.3508008989603 
! Port Impedance50               0                50               0                

2.04             0.352166023615191 -41.6259838955046 0.931897958403513 -131.417850857123 0.931897958403511 -131.417850857123 0.352168954779718 -41.7400173876359 
! Gamma         !               0.0309768164911163 61.9582345701654 0.0309768164911271 61.9582345702037 
! Port Impedance50               0                50               0                

2.06             0.352826428276647 -42.86099752151  0.931596820828209 -132.65070330061 0.931596820828208 -132.65070330061 0.352829398560608 -42.9761046594072 
! Gamma         !               0.0312811474154658 62.5656682414862 0.0312811474154712 62.5656682415194 
! Port Impedance50               0                50               0                

2.08             0.35342774786481 -44.095614831995 0.931317597305012 -133.883197571686 0.931317597305012 -133.883197571686 0.353430759200167 -44.2118366230862 
! Gamma         !               0.031585431083082 63.1731019128767 0.0315854310830824 63.173101912905  
! Port Impedance50               0                50               0                

2.1              0.353969994813595 -45.3298709920144 0.93106041666688 -135.115369318923 0.931060416666879 -135.115369318922 0.353973049297761 -45.4472488695344 
! Gamma         !               0.0318896692617262 63.7805355843341 0.031889669261722 63.7805355843579 
! Port Impedance50               0                50               0                

2.12             0.354453179696545 -46.5638012709829 0.930825395361418 -136.347254359708 0.930825395361417 -136.347254359708 0.354456279592111 -46.6823771237559 
! Gamma         !               0.0321938637569659 64.387969255856  0.0321938637569574 64.3879692558757 
! Port Impedance50               0                50               0                

2.14             0.354877311084867 -47.7974410256742 0.930612637485497 -137.578888663582 0.930612637485495 -137.578888663582 0.354880458818933 -47.9172572282676 
! Gamma         !               0.0324980163998416 64.9954029274397 0.0324980163998291 64.9954029274554 
! Port Impedance50               0                50               0                

2.16             0.355242395419785 -49.0308256833906 0.930422234817674 -138.810308335704 0.930422234817674 -138.810308335704 0.355245593582915 -49.1519251267057 
! Gamma         !               0.0328021290357628 65.6028365990822 0.0328021290357468 65.6028365990942 
! Port Impedance50               0                50               0                

2.18             0.35554843689919 -50.2639907252876 0.930254266848186 -140.041549600442 0.930254266848186 -140.041549600442 0.355551688243977 -50.3864168476581 
! Gamma         !               0.0331062035145461 66.2102702707807 0.0331062035145267 66.2102702707894 
! Port Impedance50               0                50               0                

2.2              0.355795437378458 -51.4969716698438 0.930108800806332 -141.272648785084 0.930108800806329 -141.272648785084 0.355798744817714 -51.6207684887089 
! Gamma         !               0.0334102416815101 66.817703942533  0.0334102416814878 66.8177039425385 
! Port Impedance50               0                50               0                

2.22             0.355983396285398 -52.7298040564559 0.92998589168509 -142.503642303646 0.929985891685088 -142.503642303646 0.355986762889973 -52.855016200681 
! Gamma         !               0.0337142453695526 67.4251376143359 0.0337142453695274 67.4251376143385 
! Port Impedance50               0                50               0                

2.24             0.356112310549232 -53.9625234291515 0.929885582262822 -143.734566640779 0.929885582262821 -143.734566640779 0.356115739545454 -54.0891961720682 
! Gamma         !               0.0340182163921301 68.0325712861871 0.0340182163921026 68.032571286187  
! Port Impedance50               0                50               0                

2.26             0.356182174543555 -55.195165320395 0.929807903121924 -144.965458335754 0.929807903121924 -144.965458335754 0.356185669310318 -55.3233446136357 
! Gamma         !               0.0343221565370777 68.6400049580835 0.0343221565370481 68.640004958081  
! Port Impedance50               0                50               0                

2.28             0.356192980043194 -56.4277652349774 0.929752872664335 -146.19635396652 0.929752872664334 -146.19635396652 0.356196544108679 -56.5574977431834 
! Gamma         !               0.0346260675611964 69.2474386300229 0.0346260675611649 69.2474386300181 
! Port Impedance50               0                50               0                

2.3              0.356144716194911 -57.6603586339685 0.929720497123814 -147.427290133823 0.929720497123813 -147.427290133823 0.356148353232964 -57.7916917704512 
! Gamma         !               0.0349299511855528 69.8548723020024 0.0349299511855196 69.8548723019957 
! Port Impedance50               0                50               0                

2.32             0.356037369501883 -58.8929809187181 0.929710770574909 -148.65830344537 0.929710770574906 -148.65830344537 0.356041083328048 -59.0259628821562 
! Gamma         !               0.0352338090914296 70.46230597402   0.035233809091395 70.4623059740113 
! Port Impedance50               0                50               0                

2.34             0.355870923821911 -60.125667414883 0.929723674938583 -149.889430500026 0.929723674938583 -149.889430500026 0.355874718389131 -60.2603472271459 
! Gamma         !               0.0355376429168753 71.0697396460729 0.0355376429168396 71.0697396460627 
! Port Impedance50               0                50               0                

2.36             0.355645360379294 -61.3584533564669 0.929759179984482 -151.120707872044 0.929759179984481 -151.120707872044 0.355649239773286 -61.4948809016526 
! Gamma         !               0.0358414542538024 71.677173318159  0.0358414542537657 71.6771733181472 
! Port Impedance50               0                50               0                

2.38             0.355360657790345 -62.5913738698491 0.929817243329786 -152.352172095297 0.929817243329787 -152.352172095297 0.35536462622467 -62.7295999346347 
! Gamma         !               0.0361452446455856 72.2846069902757 0.0361452446455482 72.2846069902626 
! Port Impedance50               0                50               0                

2.4              0.355016792102465 -63.8244639577875 0.929897810434735 -153.583859647516 0.929897810434735 -153.583859647516 0.355020853913276 -63.9645402731918 
! Gamma         !               0.0364490155851182 72.8920406624211 0.0364490155850802 72.8920406624068 
! Port Impedance50               0                50               0                

2.42             0.354613736846813 -65.0577584833683 0.93000081459478 -154.815806934513 0.930000814594779 -154.815806934513 0.35461789648733 -65.1997377680339 
! Gamma         !               0.0367527685132843 73.499474334593  0.036752768513246 73.4994743345777 
! Port Impedance50               0                50               0                

2.44             0.354151463104417 -66.2912921538913 0.930126176929484 -156.048050274382 0.930126176929485 -156.048050274382 0.354155725139129 -66.4352281589979 
! Gamma         !               0.037056504817809 74.1069080067892 0.0370565048177704 74.1069080067731 
! Port Impedance50               0                50               0                

2.46             0.353629939585909 -67.5250995046601 0.930273806368172 -157.280625881659 0.930273806368166 -157.280625881659 0.353634308684456 -67.6710470605844 
! Gamma         !               0.0373602258324507 74.714341679008  0.0373602258324121 74.714341678991  
! Port Impedance50               0                50               0                

2.48             0.353049132724516 -68.7592148826639 0.930443599632501 -158.513569851442 0.930443599632501 -158.513569851442 0.353053613655395 -68.9072299475199 
! Gamma         !               0.0376639328365029 75.3217753512473 0.0376639328364645 75.3217753512297 
! Port Impedance50               0                50               0                

2.5              0.352409006782766 -69.9936724301221 0.930635441216005 -159.746918143443 0.930635441216028 -159.746918143443 0.352413604406719 -70.143812140307 
! Gamma         !               0.0379676270545756 75.9292090235054 0.0379676270545372 75.9292090234873 
! Port Impedance50               0                50               0                

2.52             0.351709523972425 -71.2285060678738 0.930849203360722 -160.980706565973 0.930849203360724 -160.980706565973 0.35171424323563 -71.3808287907436 
! Gamma         !               0.0382713096566243 76.5366426957804 0.0382713096565863 76.5366426957619 
! Port Impedance50               0                50               0                

2.54             0.350950644587926 -72.4637494785713 0.931084746031147 -162.214970759845 0.931084746031144 -162.214970759845 0.350955490515   -72.6183148674628 
! Gamma         !               0.0385749817582054 77.144076368071  0.038574981758168 77.1440763680521 
! Port Impedance50               0                50               0                

2.56             0.350132327153288 -73.6994360896967 0.93134191688562 -163.449746182177 0.931341916885617 -163.449746182177 0.350137304840024 -73.8563051413654 
! Gamma         !               0.0388786444209295 77.7515100403753 0.0388786444208927 77.7515100403561 
! Port Impedance50               0                50               0                

2.58             0.349254528582392 -74.9355990563205 0.931620551245307 -164.685068090095 0.931620551245305 -164.685068090095 0.349259643188367 -75.0948341710283 
! Gamma         !               0.0391822986530907 78.3589437126919 0.0391822986530545 78.3589437126726 
! Port Impedance50               0                50               0                

2.6              0.348317204352697 -76.1722712436188 0.931920472061087 -165.920971524321 0.931920472061087 -165.920971524321 0.348322461093664 -76.3339362880357 
! Gamma         !               0.039485945410453 78.9663773850194 0.0394859454104177 78.9663773850001 
! Port Impedance50               0                50               0                

2.62             0.347320308692393 -77.4094852090997 0.93224148987847 -167.157491292627 0.932241489878468 -167.157491292627 0.347325712832545 -77.5736455822151 
! Gamma         !               0.0397895855971721 79.5738110573568 0.0397895855971376 79.5738110573374 
! Port Impedance50               0                50               0                

2.64             0.346263794780984 -78.6472731845276 0.932583402800877 -168.394661953161 0.932583402800879 -168.394661953161 0.346269351625044 -78.8139958867815 
! Gamma         !               0.0400932200668364 80.1812447297023 0.040093220066803 80.181244729683  
! Port Impedance50               0                50               0                
