! Touchstone file exported from HFSS 2018.2.0
!        File:           C:/Users/10024/OneDrive - The University of Nottingham Ningbo China/Year 4/Final Year Project/HFSS project/Passive_Resonator_Antenna.aedt
!        Generated:      12:14:34 下午  3月 12, 2022
!        Design:         SMA_Thru
!        Project:        Passive_Resonator_Antenna
!        Setup:          Setup1
!        Solution:       Sweep
!
! Variables:
!        MW = 1mm
!        ThruL = 1mm
!        g = 0.2mm
!        subH = 0.8mm
!        subX = 20mm
!        subY = 11mm
!        tapW = 1mm
!
# GHZ S MA R 50.000000
! Modal data exported
! Port[1] = SMA_CONNECTOR1_1:1
! Port[2] = SMA_CONNECTOR2_1:1
1                0.113700985929304 46.5650671942594 0.992929848820249 -43.2158859437847 0.992929848820249 -43.2158859437847 0.11370059877733 46.9806863948942 
! Gamma         !               0.0151858380091412 30.3716836112434 0.0151858380091673 30.3716836111845 
! Port Impedance50               0                50               0                

1.02             0.115876234424955 45.7037058547072 0.992662562701548 -44.0772584695752 0.992662562701548 -44.0772584695752 0.115875763052713 46.1124281688703 
! Gamma         !               0.0154476066278149 30.979117346215  0.0154476066278955 30.979117346265  
! Port Impedance50               0                50               0                

1.04             0.118045832532768 44.8423194201419 0.992390771779209 -44.9384619234154 0.992390771779209 -44.9384619234154 0.118045274697814 45.2444353908186 
! Gamma         !               0.0157120171125871 31.5865510770859 0.015712017112722 31.5865510772382 
! Port Impedance50               0                50               0                

1.06             0.120209689940763 43.9809223302358 0.992114521799317 -45.7994936510271 0.992114521799316 -45.7994936510271 0.120209043456556 44.3767061029207 
! Gamma         !               0.0159789723596961 32.193984804038  0.015978972359885 32.1939848042859 
! Port Impedance50               0                50               0                

1.08             0.122367717423709 43.119528160585  0.991833859098659 -46.6603510375693 0.991833859098659 -46.6603510375692 0.122366980158528 43.5092386981833 
! Gamma         !               0.0162483769544426 32.801418527245  0.0162483769546847 32.8014185275823 
! Port Impedance50               0                50               0                

1.1              0.124519826851989 42.2581496864294 0.991548830585016 -47.5210315079165 0.991548830585015 -47.5210315079164 0.124518996727955 42.6420318736885 
! Gamma         !               0.0165201372296078 33.4088522468714 0.0165201372299023 33.408852247292  
! Port Impedance50               0                50               0                

1.12             0.126665931199965 41.3967989405316 0.9912594837178  -48.3815325269186 0.991259483717798 -48.3815325269185 0.126665006192142 41.7750845898313 
! Gamma         !               0.0167941613179635 34.0162859630768 0.0167941613183094 34.0162859635748 
! Port Impedance50               0                50               0                

1.14             0.128805944553815 40.5354872658612 0.990965866489031 -49.2418515996428 0.99096586648903 -49.2418515996428 0.128804922689409 40.9083960347522 
! Gamma         !               0.0170703591990249 34.623719676012  0.0170703591994208 34.6237196765821 
! Port Impedance50               0                50               0                

1.16             0.13093978211887 39.6742253636502 0.990668027404633 -50.1019862715994 0.990668027404632 -50.1019862715994 0.130938661476509 40.041965593266  
! Gamma         !               0.0173486427401961 35.2311533858239 0.0173486427406408 35.2311533864606 
! Port Impedance50               0                50               0                

1.18             0.13306736022643 38.8130233373055 0.990366015466016 -50.9619341289512 0.990366015466016 -50.9619341289511 0.133066138935523 39.1757928196978 
! Gamma         !               0.0176289257324878 35.8385870926525 0.0176289257329796 35.8385870933509 
! Port Impedance50               0                50               0                

1.2              0.135188596340067 37.951890732609  0.990059880151955 -51.8216927987073 0.990059880151954 -51.8216927987072 0.135187272580245 38.3098774141096 
! Gamma         !               0.0179111239209767 36.4460207966331 0.017911123921514 36.4460207973884 
! Port Impedance50               0                50               0                

1.22             0.137303409061414 37.0908365745691 0.989749671400718 -52.6812599489027 0.989749671400718 -52.6812599489026 0.137301981062033 37.4442192014778 
! Gamma         !               0.0181951550302009 37.0534544978954 0.0181951550307821 37.0534544987026 
! Port Impedance50               0                50               0                

1.24             0.13941171813544 36.2298694012645 0.989435439592462 -53.5406332887625 0.989435439592461 -53.5406332887624 0.139410184175162 36.5788181134347 
! Gamma         !               0.0184809387846808 37.6608881965648 0.0184809387853041 37.6608881974201 
! Port Impedance50               0                50               0                

1.26             0.141513444455221 35.3689972949535 0.989117235531855 -54.3998105688526 0.989117235531855 -54.3998105688526 0.14151180286164 35.7136741722481 
! Gamma         !               0.0187683969247682 38.268321892762  0.0187683969254315 38.268321893661  
! Port Impedance50               0                50               0                

1.28             0.143608510066191 34.5082279107172 0.988795110430933 -55.2587895812167 0.988795110430933 -55.2587895812167 0.143606759215525 34.8487874767475 
! Gamma         !               0.0190574532180245 38.8757555866036 0.019057453218726 38.8757555875423 
! Port Impedance50               0                50               0                

1.3              0.145696838169888 33.6475685028601 0.988469115892169 -56.1175681594987 0.988469115892169 -56.1175681594987 0.14569497648671 33.9841581899489 
! Gamma         !               0.0193480334663376 39.4831892782027 0.0193480334670754 39.4831892791769 
! Port Impedance50               0                50               0                

1.32             0.147778353127189 32.7870259492648 0.988139303891753 -56.976144179053 0.988139303891752 -56.976144179053 0.147776379084211 33.1197865281674 
! Gamma         !               0.0196400655089858 40.0906229676668 0.0196400655097577 40.0906229686732 
! Port Impedance50               0                50               0                

1.34             0.149852980461051 31.9266067738918 0.987805726763061 -57.8345155570411 0.987805726763061 -57.8345155570411 0.149850892578929 32.255672751422  
! Gamma         !               0.0199334792218564 40.6980566551019 0.0199334792226605 40.698056656137  
! Port Impedance50               0                50               0                

1.36             0.151920646858737 31.0663171675792 0.987468437180332 -58.692680252515 0.987468437180332 -58.6926802525149 0.151918443705916 31.3918171549783 
! Gamma         !               0.0202282065130329 41.3054903406082 0.0202282065138672 41.3054903416686 
! Port Impedance50               0                50               0                

1.38             0.153981280173544 30.2061630072922 0.987127488142518 -59.5506362664879 0.987127488142517 -59.5506362664878 0.153978960366127 30.5282200618826 
! Gamma         !               0.0205241813149569 41.9129240242841 0.0205241813158193 41.9129240253665 
! Port Impedance50               0                50               0                

1.4              0.156034809426041 29.3461498739494 0.986782932957319 -60.4083816419925 0.986782932957319 -60.4083816419924 0.156032371627673 29.6648818163663 
! Gamma         !               0.0208213395733723 42.520357706224  0.0208213395742608 42.5203577073257 
! Port Impedance50               0                50               0                

1.42             0.158081164804813 28.4862830689526 0.986434825225397 -61.2659144641263 0.986434825225397 -61.2659144641263 0.158078607726574 28.8018027780121 
! Gamma         !               0.0211196192332595 43.1277913865187 0.0211196192341721 43.1277913876368 
! Port Impedance50               0                50               0                

1.44             0.160120277666703 27.6265676295189 0.98608321882476 -62.1232328600843 0.98608321882476 -62.1232328600843 0.160117600067017 27.9389833165939 
! Gamma         !               0.0214189602219575 43.7352250652561 0.0214189602228922 43.7352250663878 
! Port Impedance50               0                50               0                

1.46             0.162152080536587 26.7670083429184 0.985728167895325 -62.9803349991796 0.985728167895325 -62.9803349991795 0.162149281221127 27.0764238075011 
! Gamma         !               0.0217193044296751 44.3426587425213 0.0217193044306299 44.3426587436642 
! Port Impedance50               0                50               0                

1.48             0.164176507106648 25.9076097597047 0.985369726823643 -63.8372190928513 0.985369726823642 -63.8372190928513 0.16417358492824 26.2141246276847 
! Gamma         !               0.0220205956875832 44.9500924183963 0.0220205956885561 44.9500924195479 
! Port Impedance50               0                50               0                

1.5              0.166193492235198 25.0483762060174 0.985007950227794 -64.6938833946609 0.985007950227793 -64.6938833946609 0.16619044609371 25.3520861520575 
! Gamma         !               0.0223227797436796 45.5575260929594 0.0223227797446687 45.5575260941174 
! Port Impedance50               0                50               0                

1.52             0.168202971944999 24.1893117950328 0.984642892942459 -65.5503262002757 0.984642892942458 -65.5503262002757 0.168199800787231 24.4903087502989 
! Gamma         !               0.0226258042366068 46.1649597662874 0.0226258042376102 46.1649597674499 
! Port Impedance50               0                50               0                

1.54             0.170204883421141 23.3304204376283 0.984274610004149 -66.4065458474406 0.98427461000415 -66.4065458474406 0.170201586240683 23.6287927840145 
! Gamma         !               0.0229296186676047 46.7723934384538 0.0229296186686207 46.7723934396182 
! Port Impedance50               0                50               0                

1.56             0.172199165008451 22.471705852322  0.983903156636617 -67.2625407159384 0.983903156636617 -67.2625407159383 0.172195740845524 22.7675386042112 
! Gamma         !               0.0232341743707687 47.3798271095288 0.0232341743717954 47.3798271106934 
! Port Impedance50               0                50               0                

1.58             0.174185756208443 21.6131715745444 0.983528588236422 -68.1183092275373 0.983528588236423 -68.1183092275372 0.174182204149721 21.906546549051  
! Gamma         !               0.0235394244817806 47.9872607795806 0.0235394244828162 47.9872607807437 
! Port Impedance50               0                50               0                

1.6              0.176164597675826 20.7548209652936 0.983150960358687 -68.9738498459279 0.983150960358687 -68.9738498459278 0.176160916854215 21.0458169418526 
! Gamma         !               0.0238453239052722 48.5946944486748 0.0238453239063152 48.5946944498346 
! Port Impedance50               0                50               0                

1.62             0.17813563121456 19.8966572192209 0.982770328703008 -69.8291610766479 0.982770328703008 -69.8291610766478 0.178131820808956 20.1853500893131 
! Gamma         !               0.024151829280976 49.2021281168737 0.0241518292820246 49.2021281180288 
! Port Impedance50               0                50               0                

1.64             0.180098799773491 19.0386833721896 0.982386749099556 -70.6842414669955 0.982386749099556 -70.6842414669954 0.180094859008493 19.3251462799271 
! Gamma         !               0.0244588989488092 49.8095617842387 0.0244588989498618 49.8095617853874 
! Port Impedance50               0                50               0                

1.66             0.182054047441539 18.1809023083502 0.982000277495349 -71.539089605932 0.982000277495349 -71.539089605932 0.182049975587122 18.4652057825794 
! Gamma         !               0.024766492913033 50.4169954508274 0.0247664929140881 50.4169954519683 
! Port Impedance50               0                50               0                

1.68             0.184001319442475 17.3233167667626 0.981610969940701 -72.3937041239728 0.981610969940701 -72.3937041239727 0.183997115813625 17.6055288452962 
! Gamma         !               0.0250745728056207 51.0244291166958 0.0250745728066768 51.0244291178276 
! Port Impedance50               0                50               0                

1.7              0.185940562129279 16.4659293476058 0.981218882575858 -73.2480836930673 0.981218882575857 -73.2480836930672 0.185936226085578 16.7461156941363 
! Gamma         !               0.0253831018489615 51.6318627818974 0.0253831018500172 51.631862783019  
! Port Impedance50               0                50               0                

1.72             0.187871722978092 15.6087425180011 0.980824071617813 -74.102227026469 0.980824071617813 -74.1022270264689 0.187867253923251 15.8869665322084 
! Gamma         !               0.0256920448180219 52.2392964464834 0.0256920448190759 52.2392964475934 
! Port Impedance50               0                50               0                

1.74             0.189794750581766 14.7517586174803 0.98042659334732 -74.956132878594 0.98042659334732 -74.9561328785939 0.189790147963114 15.0280815388037 
! Gamma         !               0.0260013680020769 52.8467301105034 0.0260013680031279 52.8467301116009 
! Port Impedance50               0                50               0                

1.76             0.191709594643026 13.8949798631233 0.980026504096076 -75.8098000448693 0.980026504096077 -75.8098000448693 0.191704857950937 14.1694608686302 
! Gamma         !               0.0263110391661221 53.4541637740037 0.0263110391671687 53.4541637750878 
! Port Impedance50               0                50               0                

1.78             0.193616205967236 13.0384083543921 0.979623860234122 -76.6632273615715 0.979623860234123 -76.6632273615714 0.193611334734511 13.311104651142  
! Gamma         !               0.0266210275120634 54.06159743703   0.0266210275131045 54.0615974380999 
! Port Impedance50               0                50               0                

1.8              0.195514536454811 12.1820460776801 0.979218718157415 -77.5164137056543 0.979218718157415 -77.5164137056542 0.19550953025599 12.4530129899514 
! Gamma         !               0.0269313036397847 54.6690310996252 0.0269313036408192 54.6690311006799 
! Port Impedance50               0                50               0                

1.82             0.197404539093237 11.3258949106008 0.978811134275611 -78.3693579945675 0.978811134275611 -78.3693579945674 0.19739939754386 11.595185962321  
! Gamma         !               0.0272418395081778 55.2764647618298 0.0272418395092044 55.2764647628689 
! Port Impedance50               0                50               0                

1.84             0.199286167948747 10.4699566260331 0.978401165000048 -79.2220591860652 0.978401165000047 -79.2220591860651 0.199280890704556 10.7376236187239 
! Gamma         !               0.0275526083962195 55.8838984236841 0.0275526083972374 55.8838984247064 
! Port Impedance50               0                50               0                

1.86             0.201159378157646 9.61423289594171 0.977988866731921 -80.0745162780054 0.97798886673192 -80.0745162780053 0.201153964913715 9.88032598247071 
! Gamma         !               0.0278635848641753 56.4913320852247 0.0278635848651836 56.4913320862299 
! Port Impedance50               0                50               0                

1.88             0.203024125917285 8.75872529498779 0.977574295850677 -80.92672830814  0.977574295850678 -80.92672830814  0.203018576407096 9.02329304939497 
! Gamma         !               0.0281747447149967 57.0987657464874 0.0281747447159943 57.0987657474749 
! Port Impedance50               0                50               0                

1.9              0.20488036847671 7.90343530394727 0.977157508702606 -81.778694353896 0.977157508702607 -81.7786943538959 0.204874682471164 8.16652478759401 
! Gamma         !               0.0284860649559813 57.7061994075063 0.0284860649569675 57.7061994084754 
! Port Impedance50               0                50               0                

1.92             0.206728064126987 7.04836431294819 0.976738561589644 -82.6304135321476 0.976738561589643 -82.6304135321475 0.206722241433347 7.31002113722048 
! Gamma         !               0.028797523760757 58.3136330683131 0.0287975237617309 58.3136330692638 
! Port Impedance50               0                50               0                

1.94             0.208567172191208 6.19351362454184 0.976317510758389 -83.4818849989804 0.976317510758388 -83.4818849989803 0.208561212651976 6.45378201032061 
! Gamma         !               0.029109100431644 58.921066728939  0.029109100432605 58.9210667298705 
! Port Impedance50               0                50               0                

1.96             0.210397653014196 5.33888445661852 0.975894412389331 -84.3331079494468 0.975894412389332 -84.3331079494467 0.21039155650593 5.59780729071669 
! Gamma         !               0.0294207753624472 59.5285003894127 0.0294207753633944 59.5285003903248 
! Port Impedance50               0                50               0                

1.98             0.212219467951905 4.48447794517993 0.975469322586303 -85.1840816173136 0.975469322586303 -85.1840816173135 0.212213234383965 4.7420968339299  
! Gamma         !               0.0297325300017254 60.1359340497619 0.0297325300026585 60.1359340506542 
! Port Impedance50               0                50               0                

2                0.214032579360549 3.63029514697729 0.975042297366132 -86.0348052748017 0.975042297366133 -86.0348052748016 0.214026208673774 3.88665046714113 
! Gamma         !               0.0300443468165785 60.7433677100124 0.0300443468174966 60.7433677108848 
! Port Impedance50               0                50               0                

2.02             0.215836950585433 2.77633704202572 0.974613392648532 -86.8852782323182 0.974613392648532 -86.8852782323181 0.215830442750762 3.03146798918766 
! Gamma         !               0.0303562092569907 61.350801370189  0.0303562092578933 61.3508013710412 
! Port Impedance50               0                50               0                

2.04             0.217632545949533 1.9226045360027  0.974182664246198 -87.7354998381815 0.974182664246198 -87.7354998381814 0.217625900966545 2.17654917059279 
! Gamma         !               0.0306681017207646 61.9582350303149 0.0306681017216512 61.9582350311468 
! Port Impedance50               0                50               0                

2.06             0.219419330741803 1.06909846253947 0.973750167855138 -88.5854694783388 0.973750167855138 -88.5854694783388 0.219412548637211 1.32189375362714 
! Gamma         !               0.0309800095190739 62.5656686904121 0.0309800095199442 62.5656686912236 
! Port Impedance50               0                50               0                

2.08             0.221197271205243 0.215819585412218 0.973315959045216 -89.4351865760773 0.973315959045216 -89.4351865760773 0.221190352031305 0.467501452399088 
! Gamma         !               0.0312919188426645 63.1731023505009 0.0312919188435179 63.173102351292  
! Port Impedance50               0                50               0                

2.1              0.222966334524725 -0.63723139935971 0.972880093250927 -90.2846505917286 0.972880093250928 -90.2846505917285 0.222959278357598 -0.386628047026924 
! Gamma         !               0.0316038167287218 63.7805360106012 0.0316038167295581 63.7805360113716 
! Port Impedance50               0                50               0                

2.12             0.224726488814577 -1.49005386150223 0.972442625762394 -91.1338610223665 0.972442625762395 -91.1338610223665 0.22471929575261 -1.24049508648589 
! Gamma         !               0.0319156910284303 64.3879696707309 0.031915691029249 64.3879696714807 
! Port Impedance50               0                50               0                

2.14             0.226477703105966 -2.34264723455572 0.972003611716596 -91.9828174014997 0.972003611716596 -91.9828174014997 0.226470373267924 -2.09410003554325 
! Gamma         !               0.0322275303752363 64.9954033309071 0.0322275303760373 64.9954033316363 
! Port Impedance50               0                50               0                

2.16             0.22821994733405 -3.19501101401942 0.971563106088814 -92.8315192987573 0.971563106088815 -92.8315192987572 0.228212480857283 -2.94744329130232 
! Gamma         !               0.032539324153832 65.6028369911461 0.032539324154615 65.6028369918546 
! Port Impedance50               0                50               0                

2.18             0.229953192324938 -4.04714475556637 0.971121163684314 -93.6799663195698 0.971121163684314 -93.6799663195698 0.229945589363485 -3.80052527819004 
! Gamma         !               0.0328510624698692 66.2102706514624 0.032851062470634 66.2102706521506 
! Port Impedance50               0                50               0                

2.2              0.231677409782457 -4.89904807332349 0.970677839130256 -94.5281581048448 0.970677839130255 -94.5281581048447 0.23166967050509 -4.65334644772169 
! Gamma         !               0.0331627361204134 66.8177043118701 0.0331627361211596 66.8177043125378 
! Port Impedance50               0                50               0                

2.22             0.233392572274727 -5.75072063821337 0.970233186867828 -95.3760943306365 0.970233186867828 -95.3760943306365 0.233384696862944 -5.50590727824602 
! Gamma         !               0.033474336565143 67.425137972382  0.0334743365658706 67.4251379730295 
! Port Impedance50               0                50               0                

2.24             0.235098653220571 -6.60216217635322 0.969787261144612 -96.2237747078122 0.969787261144613 -96.2237747078122 0.235090641866527 -6.35820827467191 
! Gamma         !               0.0337858558982995 68.0325716330102 0.0337858558990085 68.0325716336376 
! Port Impedance50               0                50               0                

2.26             0.236795626875759 -7.45337246750743 0.96934011600718 -97.0711989817124 0.969340116007181 -97.0711989817124 0.236787479780143 -7.2102499681773 
! Gamma         !               0.0340972868213902 68.6400052937658 0.0340972868220805 68.6400052943731 
! Port Impedance50               0                50               0                

2.28             0.238483468319089 -8.30435134359038 0.968891805293913 -97.918366931808 0.968891805293914 -97.9183669318079 0.23847518568895 -8.06203291590202 
! Gamma         !               0.0344086226166427 69.2474389546589 0.0344086226173142 69.2474389552464 
! Port Impedance50               0                50               0                

2.3              0.240162153438326 -9.15509868721679 0.968442382628056 -98.7652783713526 0.968442382628056 -98.7652783713525 0.240153735484851 -8.91355770062439 
! Gamma         !               0.0347198571212124 69.8548726156989 0.0347198571218651 69.8548726162668 
! Port Impedance50               0                50               0                

2.32             0.241831658916004 -10.0056144302958 0.967991901410996 -99.6119331470314 0.967991901410996 -99.6119331470313 0.241823105852244 -9.76482493042415 
! Gamma         !               0.0350309847021378 70.4623062768945 0.0350309847027716 70.4623062774429 
! Port Impedance50               0                50               0                

2.34             0.243491962215098 -10.8558985526674 0.96754041481577 -100.458331138607 0.96754041481577 -100.458331138607 0.243483274253646 -10.6158352383306 
! Gamma         !               0.0353420002320402 71.0697399382536 0.0353420002326552 71.0697399387828 
! Port Impedance50               0                50               0                

2.36             0.245143041564574 -11.7059510807773 0.967087975780805 -101.304472258559 0.967087975780806 -101.304472258559 0.245134218915205 -11.4665892819588 
! Gamma         !               0.0356528990655627 71.6771735997832 0.0356528990661591 71.6771736002935 
! Port Impedance50               0                50               0                

2.38             0.24678487594483 -12.5557720863901 0.966634637003875 -102.150356451727 0.966634637003876 -102.150356451727 0.246775918812094 -12.3170877431334 
! Gamma         !               0.0359636770165412 72.2846072614898 0.0359636770171189 72.2846072619814 
! Port Impedance50               0                50               0                

2.4              0.248417445073033 -13.4053616853358 0.966180450936292 -102.995983694942 0.966180450936292 -102.995983694942 0.248408353653812 -13.1673313275012 
! Gamma         !               0.0362743303358979 72.8920409233793 0.0362743303364571 72.8920409238524 
! Port Impedance50               0                50               0                

2.42             0.250040729388363 -14.254720036291 0.965725469777322 -103.841353996664 0.965725469777322 -103.841353996664 0.250031503869386 -14.0173207641336 
! Gamma         !               0.0365848556902523 73.4994745854567 0.0365848556907929 73.4994745859117 
! Port Impedance50               0                50               0                

2.44             0.251654710037169 -15.103847339591 0.965269745468819 -104.686467396609 0.965269745468819 -104.686467396609 0.251645350592503 -14.8670568051191 
! Gamma         !               0.0368952501412353 74.1069082477266 0.0368952501417576 74.1069082481639 
! Port Impedance50               0                50               0                

2.46             0.253259368858051 -15.952743836071 0.964813329690094 -105.53132396538 0.964813329690095 -105.53132396538 0.253249875646546 -15.7165402251482 
! Gamma         !               0.0372055111254997 74.7143419101931 0.0372055111260039 74.7143419106128 
! Port Impedance50               0                50               0                

2.48             0.254854688366867 -16.8014098059372 0.964356273852996 -106.375923804096 0.964356273852996 -106.375923804096 0.25484506152959 -16.5657718210886 
! Gamma         !               0.0375156364354134 75.3217755728597 0.0375156364358996 75.3217755732621 
! Port Impedance50               0                50               0                

2.5              0.256440651741684 -17.6498455676641 0.963898629097216 -107.220267044013 0.963898629097217 -107.220267044013 0.256430891399308 -17.4147524115548 
! Gamma         !               0.037825624200424 75.9292092357293 0.0378256242008925 75.9292092361149 
! Port Impedance50               0                50               0                

2.52             0.258017242807668 -18.4980514769182 0.963440446285821 -108.06435384615 0.963440446285821 -108.06435384615 0.258007349057857 -18.2634828364702 
! Gamma         !               0.0381354728690836 76.5366428988045 0.0381354728695346 76.5366428991734 
! Port Impedance50               0                50               0                

2.54             0.25958444602194 -19.3460279255061 0.962981776000988 -108.908184400913 0.962981776000988 -108.908184400913 0.259574418936699 -19.1119639566238 
! Gamma         !               0.0384451811917187 77.1440765620871 0.0384451811921522 77.1440765624396 
! Port Impedance50               0                50               0                

2.56             0.26114224645838 -20.1937753403476 0.962522668539976 -109.751758927714 0.962522668539977 -109.751758927714 0.261132086081396 -19.9601966532226 
! Gamma         !               0.0387547482037337 77.751510225579  0.0387547482041502 77.7515102259155 
! Port Impedance50               0                50               0                

2.58             0.262690629792408 -21.0412941824713 0.962063173911301 -110.595077674594 0.962063173911301 -110.595077674594 0.262680336136376 -20.8081818274384 
! Gamma         !               0.0390641732095344 78.3589438892811 0.039064173209934 78.358943889602  
! Port Impedance50               0                50               0                

2.6              0.264229582285737 -21.8885849460322 0.961603341831126 -111.438140917843 0.961603341831127 -111.438140917843 0.264219155329674 -21.6559203999523 
! Gamma         !               0.0393734557670561 78.9663775531942 0.039373455767439 78.9663775534998 
! Port Impedance50               0                50               0                

2.62             0.26575909077111 -22.7356481573519 0.961143221719869 -112.280948961618 0.96114322171987 -112.280948961618 0.265748530457662 -22.5034133104959 
! Gamma         !               0.039682595672883 79.5738112173192 0.0396825956732495 79.5738112176097 
! Port Impedance50               0                50               0                

2.64             0.267279142637028 -23.5824843739793 0.960682862699021 -113.123502137566 0.960682862699021 -113.123502137566 0.267268448869775 -23.3506615173902 
! Gamma         !               0.0399915929479463 80.1812448816556 0.0399915929482968 80.1812448819316 
! Port Impedance50               0                50               0                

2.66             0.268789725812475 -24.4290941837717 0.960222313588163 -113.965800804441 0.960222313588163 -113.965800804441 0.268778898453228 -24.197665997084 