! Touchstone file exported from HFSS 2018.2.0
!        File:           C:/Users/10024/OneDrive - The University of Nottingham Ningbo China/Year 4/Final Year Project/HFSS project/Passive_Resonator_Antenna.aedt
!        Generated:      12:15:40 下午  3月 12, 2022
!        Design:         SMA_Thru
!        Project:        Passive_Resonator_Antenna
!        Setup:          Setup1
!        Solution:       Sweep
!
! Variables:
!        MW = 1mm
!        ThruL = 21mm
!        g = 0.2mm
!        subH = 0.8mm
!        subX = 20mm
!        subY = 31mm
!        tapW = 1mm
!
# GHZ S MA R 50.000000
! Modal data exported
! Port[1] = SMA_CONNECTOR1_1:1
! Port[2] = SMA_CONNECTOR2_1:1
1                0.293608242937712 9.19536286342915 0.953963553868847 -80.7177935763935 0.953963553868847 -80.7177935763935 0.293610128038857 9.14384721206869 
! Gamma         !               0.0151858380091344 30.3716836111798 0.0151858380091107 30.3716836112025 
! Port Impedance50               0                50               0                

1.02             0.297203689524622 7.63829704480103 0.952793486392229 -82.2694864217925 0.952793486392229 -82.2694864217926 0.297205600097224 7.59030627621374 
! Gamma         !               0.0154862797923277 30.9791172857635 0.0154862797945286 30.9791172897576 
! Port Impedance50               0                50               0                

1.04             0.300689859552138 6.08384684860341 0.95164251981822 -83.8187113523112 0.95164251981822 -83.8187113523113 0.300691794119231 6.03924186694864 
! Gamma         !               0.0157872683038481 31.5865509599492 0.0157872683079558 31.5865509672579 
! Port Impedance50               0                50               0                

1.06             0.304066462162459 4.53196116760064 0.950512049820769 -85.3655167150668 0.950512049820769 -85.3655167150668 0.30406841937674 4.49060733502868 
! Gamma         !               0.0160887415512511 32.1939846337822 0.0160887415569728 32.1939846438226 
! Port Impedance50               0                50               0                

1.08             0.307333245153718 2.98258619278921 0.949403430210246 -86.9099537137534 0.949403430210245 -86.9099537137535 0.307335223800049 2.94435289045075 
! Gamma         !               0.0163906430944914 32.8014183073039 0.0163906431015593 32.8014183195605 
! Port Impedance50               0                50               0                

1.1              0.310489992275503 1.43566550994167 0.948317972250136 -88.4520763053191 0.948317972250134 -88.4520763053192 0.31049199127293 1.40042573544291 
! Gamma         !               0.0166929216554564 33.4088519805528 0.0166929216636269 33.4088519945714 
! Port Impedance50               0                50               0                

1.12             0.313536520575913 -0.108859802379433 0.947256944069649 -89.9919410965428 0.947256944069649 -89.9919410965428 0.31353853897924 -0.141229805169681 
! Gamma         !               0.0169955307449014 34.0162856535622 0.0169955307539544 34.0162856689438 
! Port Impedance50               0                50               0                

1.14             0.316472677806218 -1.65105107374577 0.946221570165929 -91.5296072407242 0.946221570165929 -91.5296072407243 0.31647471480715 -1.68067215613964 
! Gamma         !               0.0172984283072468 34.6237193263636 0.0172984283169845 34.6237193427592 
! Port Impedance50               0                50               0                

1.16             0.319298339888628 -3.19097194207938 0.945213030989588 -93.0651363346803 0.945213030989588 -93.0651363346803 0.3193003948165  -3.21796236644521 
! Gamma         !               0.0176015763834782 35.231152998984  0.0176015763937234 35.2311530160907 
! Port Impedance50               0                50               0                

1.18             0.322013408452118 -4.72868825347044 0.944232462607285 -94.5985923162185 0.944232462607286 -94.5985923162186 0.322015480774238 -4.75316398635618 
! Gamma         !               0.0179049407921901 35.8385866714494 0.0179049408027863 35.838586689004  
! Port Impedance50               0                50               0                

1.2              0.324617808440766 -6.26426796186452 0.943280956435139 -96.1300413622436 0.943280956435139 -96.1300413622437 0.324619897762377 -6.28634294687123 
! Gamma         !               0.0182084908286599 36.4460203437813 0.0182084908394684 36.4460203615584 
! Port Impedance50               0                50               0                

1.22             0.32711148579857 -7.79778102884973 0.942359559036852 -97.6595517876293 0.942359559036851 -97.6595517876294 0.327113591862473 -7.81756744148522 
! Gamma         !               0.0185121989816879 37.0534540159996 0.0185121989925878 37.0534540338067 
! Port Impedance50               0                50               0                

1.24             0.329494405234257 -9.32929932374187 0.941469271980539 -99.1871939449736 0.941469271980539 -99.1871939449737 0.329496527920079 -9.34690781024833 
! Gamma         !               0.018816040667836 37.6608876881237 0.0188160406787227 37.6608877057964 
! Port Impedance50               0                50               0                

1.26             0.331766548069142 -10.8588965241346 0.940611051748388 -100.713040125335 0.940611051748388 -100.713040125335 0.331768687392299 -10.8744364260793 
! Gamma         !               0.0191199939825975 38.2683213601676 0.0191199939933803 38.2683213775697 
! Port Impedance50               0                50               0                

1.28             0.333927910170741 -12.3866480170535 0.939785809693447 -102.237164460031 0.939785809693447 -102.237164460031 0.333930066281088 -12.4002275832941 
! Gamma         !               0.0194240394679534 38.8757550321466 0.0194240394785558 38.8757550491639 
! Port Impedance50               0                50               0                

1.3              0.33597849997442 -13.9126308008294 0.938994412038005 -103.759642823566 0.938994412038005 -103.759642823566 0.335980673154624 -13.9243573883098 
! Gamma         !               0.0197281598957222 39.4831887040725 0.0197281599060797 39.483188720613  
! Port Impedance50               0                50               0                

1.32             0.337918336595063 -15.4369233877787 0.938237679908226 -105.280552737735 0.938237679908226 -105.280552737735 0.337920527258691 -15.4469036524796 
! Gamma         !               0.0200323400660556 40.0906223759567 0.0200323400761151 40.0906223919452 
! Port Impedance50               0                50               0                

1.34             0.339747448030398 -16.9596057077627 0.937516389399923 -106.799973276938 0.937516389399923 -106.799973276938 0.339749656719758 -16.9679457870101 
! Gamma         !               0.0203365666204081 40.6980560478089 0.0203365666301262 40.6980560631871 
! Port Impedance50               0                50               0                

1.36             0.341465869457345 -18.4807590126714 0.936831271670548 -108.317984974736 0.936831271670547 -108.317984974736 0.341468096841083 -18.4875646999098 
! Gamma         !               0.0206408278682887 41.3054897196371 0.0206408278776314 41.3054897343609 
! Port Impedance50               0                50               0                

1.38             0.343073641622516 -20.0004657818634 0.936183013052739 -109.83466973163 0.936183013052739 -109.83466973163 0.343075888492976 -20.0058426949099 
! Gamma         !               0.0209451136270895 41.9129233914488 0.0209451136360307 41.9129234054865 
! Port Impedance50               0                50               0                

1.4              0.344570809327718 -21.5188096285737 0.935572255184983 -111.350110724096 0.935572255184982 -111.350110724096 0.344573076598095 -21.5228633722937 
! Gamma         !               0.0212494150742876 42.5203570632502 0.0212494150828083 42.5203570765808 
! Port Impedance50               0                50               0                

1.42             0.34595742001115 -23.0358752072867 0.934999595155208 -112.86439231482 0.934999595155207 -112.864392314821 0.345959708712437 -23.0387115315683 
! Gamma         !               0.0215537246113189 43.1277907350469 0.0215537246194063 43.1277907476589 
! Port Impedance50               0                50               0                

1.44             0.3472335224248  -24.5517481220531 0.934465585653371 -114.377599964134 0.934465585653371 -114.377599964134 0.347235833702537 -24.5534730759021 
! Gamma         !               0.0218580357384338 43.7352244068435 0.021858035746081 43.7352244187329 
! Port Impedance50               0                50               0                

1.46             0.348399165408356 -26.0665148357211 0.933970735129367 -115.889820142596 0.933970735129366 -115.889820142596 0.348401500519213 -26.0672349182501 
! Gamma         !               0.0221623429398604 44.3426580786437 0.0221623429470648 44.3426580898139 
! Port Impedance50               0                50               0                

1.48             0.349454396759872 -27.5802625800353 0.933515507952826 -117.401140244684 0.933515507952826 -117.401140244684 0.349456757068046 -27.5800848890831 
! Gamma         !               0.022466641578617 44.9500917504512 0.0224666415853805 44.950091760911  
! Port Impedance50               0                50               0                

1.5              0.350399262203257 -29.0930792665428 0.933100324571673 -118.911648503533 0.933100324571672 -118.911648503533 0.350401649176722 -29.0921116456281 
! Gamma         !               0.022770927800341 45.5575254222681 0.0227709278066689 45.5575254320313 
! Port Impedance50               0                50               0                

1.52             0.35123380445261 -30.6050533982416 0.932725561666522 -120.421433906653 0.932725561666522 -120.421433906653 0.351236219659214 -30.6034045825301 
! Gamma         !               0.0230751984455209 46.1649590940972 0.0230751984514217 46.1649591031809 
! Port Impedance50               0                50               0                

1.54             0.351958062373324 -32.1162739818885 0.932391552298308 -121.93058611257 0.932391552298307 -121.93058611257 0.351960507476737 -32.1140537438322 
! Gamma         !               0.0233794509695481 46.7723927659398 0.0233794509750324 46.7723927743655 
! Port Impedance50               0                50               0                

1.56             0.352572070239826 -33.6268304408772 0.932098586046778 -123.439195368298 0.932098586046778 -123.439195368299 0.352574546995366 -33.6241497361747 
! Gamma         !               0.0236836833700268 47.3798264377973 0.0236836833751073 47.3798264455887 
! Port Impedance50               0                50               0                

1.58             0.35307585708979 -35.1368125285894 0.93184690913776 -124.947352427567 0.931846909137759 -124.947352427567 0.353078367340111 -35.1337836431042 
! Gamma         !               0.0239878941208121 47.9872601096712 0.0239878941255032 47.9872601168532 
! Port Impedance50               0                50               0                

1.6              0.353469446174623 -36.64631024211  0.931636724557354 -126.455148469712 0.931636724557354 -126.455148469712 0.353471991845283 -36.6430469403849 
! Gamma         !               0.0242920821122706 48.5946937815612 0.0242920821165882 48.5946937881613 
! Port Impedance50               0                50               0                

1.62             0.353752854505991 -38.1554137361911 0.931468192151511 -127.962675019144 0.931468192151511 -127.962675019144 0.353755437600902 -38.1520314121983 
! Gamma         !               0.0245962465972875 49.2021274534692 0.0245962466012483 49.2021274595148 
! Port Impedance50               0                50               0                

1.64             0.353926092498178 -39.6642132373434 0.931341428709672 -129.470023865291 0.931341428709673 -129.470023865291 0.35392871509494 -39.6608290681178 
! Gamma         !               0.0249003871425701 49.8095611253941 0.0249003871461915 49.8095611309142 
! Port Impedance50               0                50               0                

1.66             0.353989163706039 -41.1727989579229 0.931256508031443 -130.977286982923 0.931256508031443 -130.977286982923 0.353991827951158 -41.16953206074  
! Gamma         !               0.0252045035848244 50.4169947973369 0.0252045035881243 50.4169948023602 
! Port Impedance50               0                50               0                

1.68             0.353942064658339 -42.6812610100764 0.931213460975514 -132.484556452756 0.931213460975513 -132.484556452756 0.35394477276233 -42.6782326038555 
! Gamma         !               0.025508595991409 51.0244284692968 0.0255085959944053 51.0244284738526 
! Port Impedance50               0                50               0                

1.7              0.353784784786259 -44.1896893194047 0.931212275490326 -133.991924382226 0.931212275490326 -133.991924382226 0.353787539018632 -44.1870228910407 
! Gamma         !               0.0258126646250942 51.6318621412742 0.0258126646278051 51.6318621453909 
! Port Impedance50               0                50               0                

1.72             0.353517306446907 -45.6981735381913 0.931252896626219 -135.499482826343 0.931252896626217 -135.499482826343 0.353520109131029 -45.6959950145488 
! Gamma         !               0.0261167099125803 52.2392958132684 0.0261167099150237 52.2392958169745 
! Port Impedance50               0                50               0                

1.74             0.353139605041636 -47.2068029580426 0.931335226529064 -137.007323708511 0.931335226529063 -137.007323708511 0.353142458549471 -47.2052408843832 
! Gamma         !               0.02642073241645 52.8467294852786 0.0264207324186435 52.8467294886021 
! Port Impedance50               0                50               0                

1.76             0.352651649229041 -48.715666421778 0.931459124415671 -138.515538741207 0.931459124415671 -138.515538741207 0.352654555975747 -48.7148521474318 
! Gamma         !               0.0267247328102554 53.4541631573047 0.0267247328122165 53.4541631602723 
! Port Impedance50               0                50               0                

1.78             0.352053401232501 -50.2248522344034 0.931624406531469 -140.024219346437 0.931624406531468 -140.024219346437 0.352056363670879 -50.224920106547 
! Gamma         !               0.0270287118564603 54.0615968293463 0.0270287118582059 54.061596831984  
! Port Impedance50               0                50               0                

1.8              0.351344817242135 -51.7344480729939 0.931830846091272 -141.53345657584 0.931830846091272 -141.53345657584 0.351347837856925 -51.7355356394511 
! Gamma         !               0.027332670386978 54.6690305014023 0.0273326703885243 54.6690305037356 
! Port Impedance50               0                50               0                

1.82             0.350525847911101 -53.2445408953076 0.932078173204165 -143.043341030364 0.932078173204165 -143.043341030364 0.350528929213086 -53.2467891173569 
! Gamma         !               0.0276366092860637 55.2764641734724 0.0276366092874265 55.2764641755252 
! Port Impedance50               0                50               0                

1.84             0.349596438946105 -54.7552168469439 0.932366074783831 -144.553962779405 0.93236607478383 -144.553962779405 0.349599583466027 -54.7587703231884 
! Gamma         !               0.0279405294753425 55.8838978455556 0.0279405294765369 55.8838978473513 
! Port Impedance50               0                50               0                

1.86             0.34855653179204 -56.2665611668563 0.93269419444588 -146.065411279329 0.932694194445881 -146.065411279329 0.348559742074284 -56.2715683692944 
! Gamma         !               0.0282444319007668 56.4913315176514 0.028244431901807 56.4913315192118 
! Port Impedance50               0                50               0                

1.88             0.347406064410641 -57.7786580910175 0.93306213239402 -147.577775291272 0.93306213239402 -147.577775291272 0.347409343006674 -57.7852716145493 
! Gamma         !               0.0285483175213143 57.0987651897592 0.0285483175222142 57.0987651911052 
! Port Impedance50               0                50               0                

1.9              0.34614497215303 -59.2915907540306 0.933469445297148 -149.091142798156 0.933469445297148 -149.091142798156 0.346148321614544 -59.2999675807403 
! Gamma         !               0.0288521872992559 57.7061988618777 0.0288521873000284 57.7061988630292 
! Port Impedance50               0                50               0                

1.92             0.344773188725966 -60.8054410884699 0.933915646159731 -150.605600920821 0.933915646159731 -150.605600920821 0.34477661159771 -60.8157428681437 
! Gamma         !               0.029156042191831 58.313632534007  0.0291560421924882 58.3136325349824 
! Port Impedance50               0                50               0                

1.94             0.343290647251614 -62.3202897217267 0.934400204188082 -152.121235833226 0.93440020418808 -152.121235833226 0.343294146063848 -62.3326830701995 
! Gamma         !               0.0294598831441875 58.9210662061458 0.0294598831447409 58.9210662069627 
! Port Impedance50               0                50               0                

1.96             0.34169728142052 -63.836215870116 0.93492254465539 -153.638132676634 0.934922544655389 -153.638132676634 0.341700858681068 -63.8508726871995 
! Gamma         !               0.0297637110834517 59.528499878294  0.0297637110839121 59.5284998789684 
! Port Impedance50               0                50               0                

1.98             0.339993026737517 -65.3532972300014 0.935482048768655 -155.156375472735 0.935482048768655 -155.156375472735 0.339996684923329 -65.3703950389045 
! Gamma         !               0.0300675269138057 60.13593355045   0.0300675269141829 60.1359335509977 
! Port Impedance50               0                50               0                

2                0.338177821859989 -66.8716098656648 0.936078053540915 -156.67604703566 0.936078053540915 -156.67604703566 0.338181563408188 -66.8913321760267 
! Gamma         !               0.0303713315124614 60.7433672226143 0.0303713315127649 60.7433672230491 
! Port Impedance50               0                50               0                

2.02             0.336251610028065 -68.3912280936408 0.936709851672361 -158.197228882844 0.936709851672356 -158.197228882844 0.336255437326369 -68.413764790499 
! Gamma         !               0.030675125726431 61.3508008947855 0.0306751257266694 61.3508008951206 
! Port Impedance50               0                50               0                

2.04             0.334214340585925 -69.9122243632039 0.937376691444298 -159.720001144706 0.937376691444304 -159.720001144706 0.334218255962401 -69.937772124484 
! Gamma         !               0.0309789103699987 61.9582345669632 0.0309789103701799 61.9582345672109 
! Port Impedance50               0                50               0                

2.06             0.332065970593486 -71.4346691326981 0.938077776630018 -161.244442473139 0.938077776630011 -161.244442473141 0.332069976305483 -71.4634318780632 
! Gamma         !               0.0312826862228126 62.5656682391472 0.0312826862229441 62.5656682393187 
! Port Impedance50               0                50               0                

2.08             0.329806466527086 -72.958630741314 0.938812266426995 -162.770629948796 0.938812266426991 -162.770629948795 0.329810564749467 -72.9908201155626 
! Gamma         !               0.03158645402852 63.1731019113367 0.0315864540286084 63.1731019114419 
! Port Impedance50               0                50               0                

2.1              0.327435806068838 -74.48417527597  0.939579275415055 -164.29863898716 0.939579275415054 -164.29863898716 0.32743999888087 -74.5200111705015 
! Gamma         !               0.0318902144938757 63.780535583531  0.0318902144939271 63.7805355835797 
! Port Impedance50               0                50               0                

2.12             0.324953979981624 -76.0113664328185 0.940377873545194 -165.828543243469 0.940377873545193 -165.828543243469 0.324958269353147 -76.0510775490932 
! Gamma         !               0.032193968288264 64.3879692557299 0.032193968288284 64.3879692557305 
! Port Impedance50               0                50               0                

2.14             0.322360994069651 -77.5402653729317 0.94120708616428 -167.360414516462 0.941207086164281 -167.360414516462 0.322365381845736 -77.5840898323324 
! Gamma         !               0.0324977160435759 64.9954029279327 0.0324977160435697 64.9954029278932 
! Port Impedance50               0                50               0                

2.16             0.31965687122147 -79.0709305716103 0.942065894080742 -168.894322651045 0.942065894080742 -168.894322651045 0.31966135910578 -79.1191165766187 
! Gamma         !               0.0328014583543926 65.6028366001394 0.0328014583543645 65.6028366000667 
! Port Impedance50               0                50               0                

2.18             0.31684165353356 -80.6034176607274 0.942953233676763 -170.430335439909 0.942953233676762 -170.430335439909 0.316846243070073 -80.6562242129423 
! Gamma         !               0.0331051957784284 66.2102702723494 0.0331051957783827 66.2102702722499 
! Port Impedance50               0                50               0                

2.2              0.313915404511767 -82.1377792634153 0.943867997072508 -171.968518524197 0.943867997072507 -171.968518524197 0.313920097064728 -82.1954769446201 
! Gamma         !               0.0334089288371953 66.8177039445622 0.0334089288371355 66.8177039444417 
! Port Impedance50               0                50               0                

2.22             0.310878211347542 -83.6740648203266 0.944809032348207 -173.508935293302 0.944809032348207 -173.508935293302 0.310883008079437 -83.7369366436084 
! Gamma         !               0.0337126580168487 67.4251376167774 0.0337126580167781 67.4251376166409 
! Port Impedance50               0                50               0                

2.24             0.307730187265624 -85.2123204065843 0.945775143829939 -175.051646783915 0.945775143829938 -175.051646783915 0.307735089112849 -85.2806627454056 
! Gamma         !               0.0340163837691861 68.0325712889952 0.0340163837691077 68.0325712888471 
! Port Impedance50               0                50               0                

2.26             0.304471473939328 -86.7525885383899 0.946765092445098 -176.596711578453 0.946765092445098 -176.596711578453 0.304476481585384 -86.8267121425723 
! Gamma         !               0.0343201065127675 68.6400049612148 0.0343201065126838 68.6400049610592 
! Port Impedance50               0                50               0                

2.28             0.301102243969195 -88.2949079681288 0.947777596153665 -178.144185703013 0.947777596153666 -178.144185703013 0.301107357814993 -88.3751390768953 
! Gamma         !               0.034623826634133 69.2474386334361 0.034623826634046 69.2474386332765 
! Port Impedance50               0                50               0                

2.3              0.297622703420257 -89.8393134665863 0.948811330461356 -179.694122525026 0.948811330461356 -179.694122525026 0.297627923551262 -89.9259950302279 
! Gamma         !               0.0349275444890937 69.8548723056589 0.0349275444890055 69.8548723054982 
! Port Impedance50               0                50               0                

2.32             0.294033094412783 -91.3858355906913 0.94986492902081 178.75342734921  0.94986492902081 178.75342734921  0.294038420562541 -91.4793286140281 
! Gamma         !               0.0352312604040786 70.4623059778829 0.0352312604039908 70.4623059777238 
! Port Impedance50               0                50               0                

2.34             0.290333697760703 -92.9345004349143 0.950936984326944 177.198416176905 0.950936984326943 177.198416176905 0.290339129270336 -93.0351854576232 
! Gamma         !               0.0355349746775176 71.069739650108  0.0355349746774315 71.0697396499527 
! Port Impedance50               0                50               0                

2.36             0.286524835651569 -94.4853293641246 0.952026048512529 175.640799180825 0.952026048512529 175.640799180825 0.2865303714247  -94.5936080952071 
! Gamma         !               0.0358386875812463 71.677173322334  0.035838687581163 71.6771733221843 
! Port Impedance50               0                50               0                

2.38             0.282606874361214 -96.0383387253237 0.953130634249976 174.080534650787 0.953130634249976 174.080534650787 0.282612512813764 -96.1546358515692 
! Gamma         !               0.0361423993619203 72.2846069945606 0.0361423993618408 72.2846069944181 
! Port Impedance50               0                50               0                

2.4              0.278580226995846 -97.5935395351821 0.954249215765133 172.51758404431  0.954249215765134 172.51758404431  0.278585966      -97.7183047265306 
! Gamma         !               0.036446110242426 72.8920406667878 0.036446110242351 72.8920406666539 
! Port Impedance50               0                50               0                

2.42             0.274445356253627 -99.150937139749 0.955380229968751 170.951912086143 0.955380229968751 170.951912086143 0.274451193075248 -99.2846472780277 
! Gamma         !               0.0367498204232789 73.4994743390155 0.0367498204232091 73.499474338891  
! Port Impedance50               0                50               0                

2.44             0.270202777197383 -100.710530841996 0.956522077711001 169.383486866361 0.956522077711001 169.383486866361 0.270208708425951 -100.853692503746 
! Gamma         !               0.0370535300840024 74.1069080112436 0.037053530083938 74.1069080111292 
! Port Impedance50               0                50               0                

2.46             0.265853060029375 -102.272313492007 0.957673125164149 167.812279936709 0.957673125164149 167.812279936709 0.265859081499457 -102.425465721151 
! Gamma         !               0.0373572393844766 74.7143416834717 0.037357239384418 74.7143416833679 
! Port Impedance50               0                50               0                

2.48             0.261396832858619 -103.836271033595 0.95883170533813 166.238266404823 0.958831705338131 166.238266404823 0.261402939561685 -103.99998844569 
! Gamma         !               0.0376609484662555 75.3217753557001 0.037660948466203 75.3217753556073 
! Port Impedance50               0                50               0                

2.5              0.256834784450654 -105.402381999855 0.959996119733373 164.661425025995 0.959996119733373 164.661425025995 0.256840970435859 -105.577278266847 
! Gamma         !               0.0379646574538447 75.9292090279283 0.0379646574537983 75.9292090278468 
! Port Impedance50               0                50               0                

2.52             0.252167666949163 -106.970616948583 0.961164640134732 163.081738292069 0.961164640134732 163.081738292069 0.2521739252115  -107.157348721615 
! Gamma         !               0.0382683664559372 76.5366427001566 0.0382683664558967 76.5366427000863 
! Port Impedance50               0                50               0                

2.54             0.247396298558344 -108.540937826583 0.962335510549889 161.499192517091 0.962335510549889 161.499192517091 0.24740262091226 -108.740209164801 
! Gamma         !               0.0385720755666029 77.1440763723847 0.0385720755665685 77.1440763723255 
! Port Impedance50               0                50               0                

2.56             0.242521566174511 -110.113297249472 0.963506949294957 159.913777919282 0.963506949294956 159.913777919282 0.242527943110777 -110.325864635381 
! Gamma         !               0.0388757848664325 77.7515100446129 0.0388757848664039 77.7515100445644 
! Port Impedance50               0                50               0                

2.58             0.237544427954991 -111.687637680578 0.964677151229403 158.325488698917 0.964677151229402 158.325488698917 0.237550848478162 -111.914315717888 
! Gamma         !               0.0391794944236295 78.3589437168408 0.0391794944236064 78.3589437168028 
! Port Impedance50               0                50               0                

2.6              0.232465915811997 -113.263890488825 0.965844290141656 156.734323111668 0.965844290141656 156.734323111668 0.232472367255334 -113.50555839749 
! Gamma         !               0.0394832042950538 78.9663773890684 0.0394832042950361 78.9663773890405 
! Port Impedance50               0                50               0                

2.62             0.227287137819019 -114.841974860715 0.96700652128602 155.140283536955 0.96700652128602 155.140283536955 0.22729360563306 -115.099583907047 
! Gamma         !               0.0397869145272129 79.5738110612959 0.0397869145272002 79.5738110612775 
! Port Impedance50               0                50               0                

2.64             0.222009280516916 -116.421796535542 0.968161984070653 153.543376540862 0.968161984070653 153.543376540862 0.222015748027188 -116.696378563888 
! Gamma         !               0.0400906251572027 80.1812447335231 0.0400906251571947 80.1812447335138 
! Port Impedance50               0                50               0                

2.66             0.216633611107002 -118.003246325341 0.9693088048955  151.943612933135 0.9693088048955  151.943612933135 0.216640059235313 -118.295923593449 