! Touchstone file exported from HFSS 2018.2.0
!        File:           C:/Users/10024/OneDrive - The University of Nottingham Ningbo China/Year 4/Final Year Project/HFSS project/Passive_Resonator_Antenna.aedt
!        Generated:      12:14:43 下午  3月 12, 2022
!        Design:         SMA_Thru
!        Project:        Passive_Resonator_Antenna
!        Setup:          Setup1
!        Solution:       Sweep
!
! Variables:
!        MW = 1mm
!        ThruL = 3mm
!        g = 0.2mm
!        subH = 0.8mm
!        subX = 20mm
!        subY = 13mm
!        tapW = 1mm
!
# GHZ S MA R 50.000000
! Modal data exported
! Port[1] = SMA_CONNECTOR1_1:1
! Port[2] = SMA_CONNECTOR2_1:1
1                0.137292972643076 42.8573931398749 0.989825194711808 -47.0776014931752 0.989825194711808 -47.0776014931752 0.137292909776424 42.9207720736025 
! Gamma         !               0.0151858380091465 30.3716836111974 0.015185838009149 30.3716836111944 
! Port Impedance50               0                50               0                

1.02             0.139855250788316 41.9174224817461 0.989446621556389 -48.0136020535883 0.98944662155639 -48.0136020535883 0.139855146704981 41.9776723525015 
! Gamma         !               0.0154476066278297 30.9791173462011 0.0154476066278502 30.9791173462213 
! Port Impedance50               0                50               0                

1.04             0.142407169644235 40.9777553714181 0.989062343430207 -48.9492908936291 0.989062343430207 -48.949290893629 0.142407024271408 41.0349668243172 
! Gamma         !               0.0157120171126114 31.5865510771028 0.0157120171126498 31.5865510771443 
! Port Impedance50               0                50               0                

1.06             0.144948576784824 40.0383991274083 0.988672458867738 -49.88466371959  0.988672458867738 -49.88466371959  0.144948390091732 40.0926580730074 
! Gamma         !               0.0159789723597301 32.1939848040833 0.015978972359786 32.1939848041454 
! Port Impedance50               0                50               0                

1.08             0.147479322324101 39.0993607816226 0.988277067408781 -50.8197163364851 0.988277067408782 -50.8197163364851 0.147479094322928 39.1507487538537 
! Gamma         !               0.0162483769544863 32.8014185273171 0.0162483769545593 32.801418527398  
! Port Impedance50               0                50               0                

1.1              0.149999258927025 38.1606470839965 0.98787626955055 -51.7544446485827 0.987876269550551 -51.7544446485826 0.149998989673732 38.2092415655486 
! Gamma         !               0.016520137229661 33.4088522469685 0.0165201372297509 33.4088522470665 
! Port Impedance50               0                50               0                

1.12             0.152508241818776 37.2222645075212 0.987470166700403 -52.6888446598864 0.987470166700404 -52.6888446598864 0.152507931413873 37.2681392261604 
! Gamma         !               0.0167941613180264 34.0162859631969 0.0167941613181327 34.0162859633112 
! Port Impedance50               0                50               0                

1.14             0.155006128792464 36.2842192535575 0.987058861129186 -53.6229124745644 0.987058861129187 -53.6229124745643 0.155005777381702 36.3274444524385 
! Gamma         !               0.0170703591990971 34.623719676154  0.0170703591992192 34.6237196762831 
! Port Impedance50               0                50               0                

1.16             0.157492780215249 35.3465172573457 0.986642455925206 -54.5566442973298 0.986642455925207 -54.5566442973298 0.157492387990259 35.38715994201   
! Gamma         !               0.0173486427402775 35.2311533859863 0.017348642740415 35.2311533861291 
! Port Impedance50               0                50               0                

1.18             0.159968059032907 34.4091641936426 0.98622105494881 -55.4900364337733 0.98622105494881 -55.4900364337733 0.159967626231789 34.4472883580732 
! Gamma         !               0.0176289257325781 35.8385870928337 0.0176289257327305 35.8385870929889 
! Port Impedance50               0                50               0                

1.2              0.162431830772857 33.472165482422  0.98579476278758 -56.4230852906492 0.98579476278758 -56.4230852906491 0.162431357680711 33.507832316248  
! Gamma         !               0.0179111239210756 36.4460207968318 0.0179111239212424 36.4460207969984 
! Port Impedance50               0                50               0                

1.22             0.164883963545659 32.535526294589  0.98536368471213 -57.3557873761159 0.985363684712131 -57.3557873761159 0.164883450495072 32.568794373298  
! Gamma         !               0.0181951550303083 37.0534544981098 0.0181951550304886 37.0534544982871 
! Port Impedance50               0                50               0                

1.24             0.167324328045013 31.5992515576694 0.984927926632514 -58.2881392999335 0.984927926632515 -58.2881392999334 0.167323775416493 31.630177017466  
! Gamma         !               0.0184809387847962 37.6608881967943 0.0184809387849898 37.6608881969809 
! Port Impedance50               0                50               0                

1.26             0.16975279754627 30.6633459614345 0.984487595055226 -59.2201377736168 0.984487595055227 -59.2201377736167 0.169752205768641 30.6919826602142 
! Gamma         !               0.0187683969248915 38.268321893005  0.0187683969250974 38.2683218932001 
! Port Impedance50               0                50               0                

1.28             0.172169247903486 29.7278139634405 0.98404279704081 -60.151779610548 0.984042797040811 -60.1517796105479 0.17216861745423 29.7542136291768 
! Gamma         !               0.0190574532181551 38.8757555868591 0.019057453218373 38.8757555870619 
! Port Impedance50               0                50               0                

1.3              0.174573557545025 28.7926597944588 0.983593640162069 -61.0830617260474 0.98359364016207 -61.0830617260474 0.174572888950587 28.8168721621664 
! Gamma         !               0.0193480334664753 39.4831892784696 0.0193480334667044 39.483189278679  
! Port Impedance50               0                50               0                

1.32             0.176965607467756 27.8578874637809 0.983140232462871 -62.0139811374047 0.983140232462871 -62.0139811374046 0.176964901303795 27.8799604020946 
! Gamma         !               0.0196400655091301 40.090622967944  0.0196400655093698 40.0906229681593 
! Port Impedance50               0                50               0                

1.34             0.179345281229847 26.9235007643879 0.982682682417564 -62.9445349638706 0.982682682417564 -62.9445349638706 0.179344538121445 26.9434803926865 
! Gamma         !               0.0199334792220069 40.6980566553884 0.0199334792222566 40.6980566556089 
! Port Impedance50               0                50               0                

1.36             0.181712464942195 25.989503277975  0.982221098890993 -63.8747204266115 0.982221098890993 -63.8747204266114 0.181711685564017 26.0074340748856 
! Gamma         !               0.0202282065131895 41.3054903409029 0.0202282065134484 41.3054903411278 
! Port Impedance50               0                50               0                

1.38             0.184067047258502 25.0558983798279 0.981755591099126 -64.804534848625 0.981755591099127 -64.804534848625 0.184066232334917 25.0718232838589 
! Gamma         !               0.0205241813151188 41.9129240245862 0.0205241813153865 41.912924024815  
! Port Impedance50               0                50               0                

1.4              0.186408919364048 24.1226892435463 0.981286268570288 -65.7339756546211 0.981286268570289 -65.7339756546211 0.186408069669188 24.1366497465256 
! Gamma         !               0.0208213395735393 42.5203577065326 0.0208213395738151 42.5203577067643 
! Port Impedance50               0                50               0                

1.42             0.188737974963162 23.1898788456158 0.980813241107015 -66.663040370866 0.980813241107016 -66.663040370866 0.188737091320942 23.2019150795419 
! Gamma         !               0.0211196192334313 43.1277913868331 0.0211196192337144 43.1277913870675 
! Port Impedance50               0                50               0                

1.44             0.191054110265428 22.2574699698289 0.980336618748519 -67.5917266249925 0.98033661874852 -67.5917266249924 0.191053193549519 22.2676207876841 
! Gamma         !               0.0214189602221336 43.7352250655754 0.0214189602224236 43.7352250658114 
! Port Impedance50               0                50               0                

1.46             0.193357223970667 21.325465211559  0.97985651173378 -68.5200321457752 0.97985651173378 -68.5200321457752 0.193356275104407 21.3337682625808 
! Gamma         !               0.0217193044298551 44.3426587428446 0.0217193044301511 44.3426587430823 
! Port Impedance50               0                50               0                

1.48             0.195647217252706 20.3938669818891 0.979373030465263 -69.4479547628745 0.979373030465264 -69.4479547628744 0.195646237208967 20.4003587817495 
! Gamma         !               0.0220205956877668 44.950092418723  0.0220205956880685 44.9500924189615 
! Port Impedance50               0                50               0                

1.5              0.197923993741971 19.4626775116011 0.978886285473267 -70.3754924065462 0.978886285473268 -70.3754924065461 0.197922983542975 19.467393507903  
! Gamma         !               0.0223227797438664 45.5575260932891 0.0223227797441731 45.5575260935279 
! Port Impedance50               0                50               0                

1.52             0.200187459506939 18.5318988550326 0.97839638738091 -71.3026431073217 0.978396387380911 -71.3026431073216 0.200186420224014 18.5348734884904 
! Gamma         !               0.0226258042367964 46.1649597666192 0.0226258042371074 46.1649597668581 
! Port Impedance50               0                50               0                

1.54             0.202437523034475 17.6015328938031 0.977903446869746 -72.2294049956564 0.977903446869746 -72.2294049956564 0.202436455787765 17.602799655447  
! Gamma         !               0.0229296186677966 46.7723934387871 0.0229296186681116 46.7723934390251 
! Port Impedance50               0                50               0                

1.56             0.204674095209085 16.6715813404205 0.977407574646034 -73.1557763015495 0.977407574646035 -73.1557763015495 0.204673001167195 16.671172825128  
! Gamma         !               0.0232341743709627 47.379827109863  0.023234174371281 47.3798271101002 
! Port Impedance50               0                50               0                

1.58             0.206897089291121 15.7420457417705 0.976908881407656 -74.081755354134 0.976908881407656 -74.081755354134 0.20689596967072 15.7399936984064 
! Gamma         !               0.0235394244819763 47.9872607799151 0.0235394244822974 47.987260780151  
! Port Impedance50               0                50               0                

1.6              0.209106420893966 14.8129274824966 0.97640747781167 -75.0073405812395 0.976407477811671 -75.0073405812395 0.209105276959322 14.8092628609154 
! Gamma         !               0.0238453239054694 48.5946944490092 0.0238453239057928 48.5946944492433 
! Port Impedance50               0                50               0                

1.62             0.21130200796024 13.8842277882787 0.975903474442542 -75.9325305089282 0.975903474442543 -75.9325305089281 0.211300841022703 13.8789807834215 
! Gamma         !               0.0241518292811742 49.2021281172078 0.0241518292814994 49.20212811744   
! Port Impedance50               0                50               0                

1.64             0.213483770737047 12.955947729014  0.975396981781011 -76.8573237610036 0.975396981781012 -76.8573237610035 0.213482582154481 12.9491478223133 
! Gamma         !               0.0244588989490081 49.8095617845716 0.0244588989493346 49.8095617848014 
! Port Impedance50               0                50               0                

1.66             0.215651631750314 12.0280882219091 0.974888110173633 -77.7817190584954 0.974888110173634 -77.7817190584953 0.215650422926461 12.0197642201967 
! Gamma         !               0.0247664929132323 50.4169954511588 0.0247664929135596 50.4169954513861 
! Port Impedance50               0                50               0                

1.68             0.217805515778238 11.100650034487  0.974376969802973 -78.7057152191188 0.974376969802974 -78.7057152191188 0.217804288162034 11.0908301065828 
! Gamma         !               0.0250745728058202 51.0244291170251 0.0250745728061478 51.0244291172498 
! Port Impedance50               0                50               0                

1.7              0.219945349823893 10.1736337875172 0.973863670658473 -79.6293111567111 0.973863670658474 -79.6293111567111 0.219944104908719 10.1623454986636 
! Gamma         !               0.0253831018491609 51.6318627822246 0.0253831018494884 51.631862782446  
! Port Impedance50               0                50               0                

1.72             0.222071063087013 9.24703995787335 0.973348322507978 -80.552505880645 0.973348322507978 -80.5525058806449 0.2220698024099  9.23431030216528 
! Gamma         !               0.0256920448182208 52.2392964468079 0.0256920448185479 52.2392964470261 
! Port Impedance50               0                50               0                

1.74             0.224182586935005 8.32086888132396 0.972831034869928 -81.4752984952205 0.97283103486993 -81.4752984952205 0.224181312075768 8.30672431227318 
! Gamma         !               0.0260013680022752 52.8467301108249 0.0260013680026015 52.8467301110395 
! Port Impedance50               0                50               0                

1.76             0.226279854873207 7.39512075526195 0.972311916986228 -82.397688199036 0.972311916986229 -82.397688199036 0.226278567453534 7.37958721462335 
! Gamma         !               0.0263110391663195 53.4541637743221 0.0263110391666444 53.4541637745329 
! Port Impedance50               0                50               0                

1.78             0.228362802514445 6.46979564137744 0.971791077795763 -83.319674284339 0.971791077795765 -83.3196742843389 0.228361504196921 6.45289858635452 
! Gamma         !               0.0266210275122597 54.0615974373447 0.026621027512583 54.061597437552  
! Port Impedance50               0                50               0                

1.8              0.230431367547913 5.54489346827889 0.971268625908609 -84.2412561363574 0.971268625908609 -84.2412561363574 0.230430060034994 5.52665789721655 
! Gamma         !               0.0269313036399796 54.6690310999362 0.0269313036403009 54.6690311001393 
! Port Impedance50               0                50               0                

1.82             0.232485489707408 4.62041403406669 0.970744669580873 -85.1624332326138 0.970744669580874 -85.1624332326137 0.232484174740335 4.60086451073173 
! Gamma         !               0.027241839508371 55.2764647621369 0.02724183950869 55.276464762336  
! Port Impedance50               0                50               0                

1.84             0.23452511073896 3.69635700886342 0.97021931669024 -86.0832051422201 0.970219316690241 -86.08320514222  0.234523790096621 3.67551768540464 
! Gamma         !               0.027552608396411 55.8838984239868 0.0275526083967274 55.8838984241816 
! Port Impedance50               0                50               0                

1.86             0.236550174367905 2.77272193730439 0.969692674712137 -87.0035715251576 0.969692674712138 -87.0035715251575 0.236548849865639 2.75061657597812 
! Gamma         !               0.0278635848643649 56.491332085523  0.0278635848646783 56.4913320857135 
! Port Impedance50               0                50               0                

1.88             0.238560626265402 1.84950824099255 0.969164850696592 -87.92353213154  0.969164850696592 -87.9235321315399 0.238559299753752 1.82616023473241 
! Gamma         !               0.028174744715184 57.0987657467811 0.0281747447154943 57.0987657469673 
! Port Impedance50               0                50               0                

1.9              0.240556414014464 0.926715220920597 0.968635951245725 -88.8430868008616 0.968635951245726 -88.8430868008616 0.240555087377881 0.902147612824652 
! Gamma         !               0.0284860649561663 57.706199407795  0.0284860649564732 57.7061994079766 
! Port Impedance50               0                50               0                

1.92             0.242537487075516 0.00434205986305164 0.968106082491911 -89.7622354612317 0.968106082491912 -89.7622354612317 0.242536162231   -0.0214224383330597 
! Gamma         !               0.0287975237609395 58.313633068597  0.0287975237612427 58.313633068774  
! Port Impedance50               0                50               0                

1.94             0.244503796751524 -0.917612175257569 0.967575350076575 -90.6809781285948 0.967575350076576 -90.6809781285947 0.244502475647227 -0.944551165660193 
! Gamma         !               0.0291091004318239 58.9210667292177 0.0291091004321232 58.9210667293902 
! Port Impedance50               0                50               0                

1.96             0.246455296152724 -1.83914853103012 0.967043859129643 -91.5993149059389 0.967043859129643 -91.5993149059388 0.246453980766496 -1.86723991295925 
! Gamma         !               0.0294207753626244 59.5285003896863 0.0294207753629195 59.5285003898541 
! Port Impedance50               0                50               0                

1.98             0.248391940160986 -2.76026816523525 0.966511714249626 -92.5172459824917 0.966511714249627 -92.5172459824916 0.248390632498872 -2.78949011943536 
! Gamma         !               0.0297325300018998 60.1359340500301 0.0297325300021907 60.1359340501931 
! Port Impedance50               0                50               0                

2                0.250313685393845 -3.68097234454617 0.965979019484345 -93.4347716329053 0.965979019484346 -93.4347716329052 0.25031238748854 -3.71130331818543 
! Gamma         !               0.0300443468167498 60.7433677102752 0.0300443468170362 60.7433677104335 
! Port Impedance50               0                50               0                

2.02             0.252220490168246 -4.60126244224763 0.965445878312281 -94.3518922164309 0.965445878312282 -94.3518922164308 0.2522192040775  -4.63268113465801 
! Gamma         !               0.0303562092571589 61.3508013704463 0.0303562092574406 61.3508013705999 
! Port Impedance50               0                50               0                

2.04             0.254112314464003 -5.52113993597089 0.964912393624549 -95.2686081760835 0.964912393624549 -95.2686081760835 0.254111042268981 -5.55362528508584 
! Gamma         !               0.0306681017209295 61.9582350305665 0.0306681017212065 61.9582350307154 
! Port Impedance50               0                50               0                

2.06             0.255989119887045 -6.44060640544411 0.964378667707487 -96.1849200377982 0.964378667707488 -96.1849200377981 0.255987863690648 -6.47413757489271 
! Gamma         !               0.0309800095192357 62.565668690658  0.0309800095195076 62.5656686908023 
! Port Impedance50               0                50               0                

2.08             0.257850869632446 -7.35966353025636 0.963844802225864 -97.1008284095767 0.963844802225865 -97.1008284095767 0.257849631557588 -7.39421989707586 
! Gamma         !               0.0312919188428229 63.1731023507413 0.0312919188430897 63.1731023508807 
! Port Impedance50               0                50               0                

2.1              0.259697528447301 -8.27831308763351 0.963310898206679 -98.0163339806286 0.963310898206681 -98.0163339806286 0.259696310635144 -8.313874230565  
! Gamma         !               0.0316038167288768 63.7805360108357 0.0316038167291384 63.7805360109705 
! Port Impedance50               0                50               0                

2.12             0.261529062593447 -9.19655695022711 0.962777056023569 -98.9314375205028 0.96277705602357 -98.9314375205028 0.261527867201603 -9.23310263856058 
! Gamma         !               0.0319156910285818 64.3879696709596 0.0319156910288381 64.3879696710899 
! Port Impedance50               0                50               0                

2.14             0.263345439810086 -10.114397083913 0.962243375381796 -99.8461398782151 0.962243375381797 -99.846139878215 0.263344269010777 -10.1519072668514 
! Gamma         !               0.0322275303753843 64.9954033311301 0.0322275303756352 64.9954033312557 
! Port Impedance50               0                50               0                

2.16             0.26514662927633 -11.0318355456005 0.961709955303823 -100.760441981368 0.961709955303824 -100.760441981368 0.26514548525452 -11.0702903421132 
! Gamma         !               0.0325393241539765 65.6028369913632 0.0325393241542219 65.6028369914841 
! Port Impedance50               0                50               0                

2.18             0.266932601573693 -11.9488744810521 0.96117689411546 -101.674344835268 0.961176894115461 -101.674344835268 0.266931486525177 -11.9882541701907 
! Gamma         !               0.0328510624700102 66.2102706516737 0.03285106247025 66.2102706517901 
! Port Impedance50               0                50               0                

2.2              0.268703328648567 -12.8655161227109 0.960644289432576 -102.587849522032 0.960644289432577 -102.587849522032 0.26870224477804 -12.9058011343633 
! Gamma         !               0.0331627361205507 66.8177043120756 0.033162736120785 66.8177043121875 
! Port Impedance50               0                50               0                

2.22             0.270458783774704 -13.7817627875397 0.960112238148371 -103.500957199702 0.960112238148372 -103.500957199702 0.270457733293794 -13.8229336935957 
! Gamma         !               0.0334743365652766 67.4251379725817 0.0334743365655052 67.4251379726893 
! Port Impedance50               0                50               0                

2.24             0.272198941515737 -14.6976168748668 0.959580836421193 -104.41366910134 0.959580836421193 -104.41366910134 0.272197926641012 -14.739654380776 
! Gamma         !               0.0337858558984295 68.0325716332042 0.0337858558986524 68.0325716333074 
! Port Impedance50               0                50               0                

2.26             0.273923777687761 -15.6130808642429 0.959050179662895 -105.325986534134 0.959050179662896 -105.325986534134 0.273922800638714 -15.6559658009415 
! Gamma         !               0.0340972868215165 68.6400052939539 0.0340972868217337 68.6400052940528 
! Port Impedance50               0                50               0                

2.28             0.275633269322006 -16.5281573133056 0.958520362527738 -106.237910878494 0.958520362527739 -106.237910878494 0.275632332319012 -16.5718706294949 
! Gamma         !               0.0344086226167653 69.2474389548412 0.0344086226169768 69.2474389549359 
! Port Impedance50               0                50               0                

2.3              0.277327394627627 -17.4428488556548 0.95799147890179 -107.149443587147 0.957991478901791 -107.149443587147 0.277326499889882 -17.4873716104103 
! Gamma         !               0.0347198571213314 69.8548726158756 0.0347198571215371 69.8548726159661 
! Port Impedance50               0                50               0                

2.32             0.279006132954625 -18.3571581987373 0.957463621892872 -108.060586184235 0.957463621892873 -108.060586184235 0.279005282698067 -18.4024715544328 
! Gamma         !               0.0350309847022531 70.4623062770655 0.035030984702453 70.4623062771519 
! Port Impedance50               0                50               0                

2.34             0.280669464756951 -19.2710881217408 0.956936883820978 -108.971340264404 0.956936883820978 -108.971340264404 0.280668661192158 -19.317173337271 
! Gamma         !               0.0353420002321518 71.0697399384191 0.035342000232346 71.0697399385014 
! Port Impedance50               0                50               0                

2.36             0.282317371555776 -20.1846414735   0.956411356209216 -109.881707491898 0.956411356209217 -109.881707491898 0.282316616885861 -20.2314798977856 
! Gamma         !               0.0356528990656708 71.6771735999431 0.0356528990658593 71.6771736000214 
! Port Impedance50               0                50               0                

2.38             0.283949835902988 -21.0978211704132 0.955887129775229 -110.791689599654 0.95588712977523 -110.791689599654 0.283949132321467 -21.1453942361742 
! Gamma         !               0.0359636770166456 72.2846072616441 0.0359636770168284 72.2846072617187 
! Port Impedance50               0                50               0                

2.4              0.285566841344916 -22.0106301943703 0.955364294423086 -111.701288388392 0.955364294423087 -111.701288388392 0.285566191033579 -22.0589194121547 
! Gamma         !               0.0362743303359988 72.8920409235282 0.0362743303361759 72.892040923599  
! Port Impedance50               0                50               0                

2.42             0.28716837238631 -22.923071590694 0.95484293923566 -112.610505725707 0.954842939235661 -112.610505725707 0.287167777513076 -22.9720585431479 
! Gamma         !               0.0365848556903496 73.4994745856001 0.036584855690521 73.4994745856672 
! Port Impedance50               0                50               0                

2.44             0.288754414454596 -23.8351484660939 0.954323152467448 -113.51934354517 0.954323152467449 -113.51934354517 0.288753877171363 -23.8848148024621 
! Gamma         !               0.0368952501413291 74.1069082478648 0.0368952501414948 74.1069082479283 
! Port Impedance50               0                50               0                

2.46             0.290324953864425 -24.7468639866344 0.953805021537862 -114.427803845414 0.953805021537863 -114.427803845414 0.290324476304918 -24.7971914174788 
! Gamma         !               0.03720551112559 74.7143419103261 0.0372055111257502 74.7143419103861 
! Port Impedance50               0                50               0                

2.48             0.291879977782531 -25.6582213757182 0.953288633024948 -115.335888689241 0.95328863302495 -115.335888689241 0.291879562060152 -25.7091916678449 
! Gamma         !               0.0375156364355002 75.3217755729875 0.0375156364356549 75.3217755730441 
! Port Impedance50               0                50               0                

2.5              0.293419474192935 -26.569223912085 0.95277407265955 -116.243600202712 0.952774072659551 -116.243600202712 0.293419122398607 -26.6208188836676 
! Gamma         !               0.0378256242005075 75.9292092358521 0.0378256242006568 75.9292092359053 
! Port Impedance50               0                50               0                

2.52             0.29494343186248 -27.4798749278266 0.952261425319894 -117.150940574257 0.952261425319894 -117.150940574257 0.294943146062501 -27.532076443719 
! Gamma         !               0.0381354728691638 76.5366428989222 0.0381354728693076 76.5366428989721 
! Port Impedance50               0                50               0                

2.54             0.296451840306748 -28.3901778064202 0.951750775026591 -118.057912053775 0.951750775026592 -118.057912053775 0.296451622540642 -28.4429677736478 
! Gamma         !               0.0384451811917955 77.1440765621998 0.0384451811919339 77.1440765622466 
! Port Impedance50               0                50               0                

2.56             0.297944689756348 -29.3001359807808 0.951242204938051 -118.96451695174 0.951242204938053 -118.96451695174 0.297944542034735 -29.3534963442012 
! Gamma         !               0.0387547482038073 77.7515102256868 0.0387547482039404 77.7515102257306 
! Port Impedance50               0                50               0                

2.58             0.299421971123599 -30.2097529313321 0.950735797346294 -119.870757638318 0.950735797346295 -119.870757638318 0.299421895426066 -30.2636656694592 
! Gamma         !               0.0390641732096048 78.3589438893842 0.0390641732097328 78.358943889425  
! Port Impedance50               0                50               0                

2.6              0.300883675969633 -31.1190321840989 0.950231633673153 -120.776636542472 0.950231633673154 -120.776636542472 0.300883674242625 -31.1734793050813 
! Gamma         !               0.0393734557671233 78.9663775532926 0.0393734557672461 78.9663775533305 
! Port Impedance50               0                50               0                

2.62             0.302329796471917 -32.0279773088212 0.949729794466863 -121.68215615109 0.949729794466863 -121.68215615109 0.302329870626635 -32.0829408465675 
! Gamma         !               0.0396825956729472 79.573811217413  0.0396825956730648 79.5738112174481 
! Port Impedance50               0                50               0                

2.64             0.303760325392202 -32.9365919170915 0.949230359399025 -122.5873190081  0.949230359399026 -122.5873190081  0.303760477302523 -32.9920539275363 
! Gamma         !               0.0399915929480075 80.181244881745  0.0399915929481202 80.1812448817773 
! Port Impedance50               0                50               0                

2.66             0.305175256044931 -33.8448796605156 0.948733407261937 -123.4921277136  0.948733407261936 -123.492127713599 0.30517548754535 -33.9008222180193 