! Touchstone file exported from HFSS 2018.2.0
!        File:           C:/Users/10024/OneDrive - The University of Nottingham Ningbo China/Year 4/Final Year Project/HFSS project/Passive_Resonator_Antenna.aedt
!        Generated:      12:14:50 下午  3月 12, 2022
!        Design:         SMA_Thru
!        Project:        Passive_Resonator_Antenna
!        Setup:          Setup1
!        Solution:       Sweep
!
! Variables:
!        MW = 1mm
!        ThruL = 5mm
!        g = 0.2mm
!        subH = 0.8mm
!        subX = 20mm
!        subY = 15mm
!        tapW = 1mm
!
# GHZ S MA R 50.000000
! Modal data exported
! Port[1] = SMA_CONNECTOR1_1:1
! Port[2] = SMA_CONNECTOR2_1:1
1                0.155942140101174 39.0061088593873 0.98692933458409 -50.9560198589834 0.986929334584088 -50.9560198589834 0.155943563530446 38.9790218537158 
! Gamma         !               0.0151858380091235 30.3716836111901 0.015185838009153 30.3716836111883 
! Port Impedance50               0                50               0                

1.02             0.15878330957849 37.9877866670732 0.986451852365776 -51.9666302744598 0.986451852365774 -51.9666302744599 0.158784732654584 37.9707321226972 
! Gamma         !               0.0155579197733071 30.9791171453927 0.0155579197769563 30.9791171467211 
! Port Impedance50               0                50               0                

1.04             0.161608914361624 36.9699924880512 0.985968083950713 -52.9767736954707 0.985968083950712 -52.9767736954708 0.161610334671356 36.9627670048455 
! Gamma         !               0.0159220250569284 31.5865506982882 0.0159220250635888 31.5865507007745 
! Port Impedance50               0                50               0                

1.06             0.164418734223806 35.9527259228107 0.985478194851602 -53.9864445549387 0.9854781948516  -53.9864445549387 0.164420149312322 35.9551375017714 
! Gamma         !               0.0162789101438367 32.193984267701  0.0162789101529868 32.1939842711926 
! Port Impedance50               0                50               0                

1.08             0.16721255311169 34.935986883787  0.984982351916777 -54.9956374691064 0.984982351916776 -54.9956374691065 0.167213960482392 34.9478540813401 
! Gamma         !               0.0166292578831736 32.8014178517242 0.0166292578943662 32.8014178560847 
! Port Impedance50               0                50               0                

1.1              0.169990159158722 33.9197755505101 0.984480723242861 -56.0043472386621 0.984480723242859 -56.0043472386622 0.16999155627324 33.9409267097898 
! Gamma         !               0.0169736856545855 33.4088514486806 0.0169736856674365 33.4088514537892 
! Port Impedance50               0                50               0                

1.12             0.172751344695764 32.9040923294243 0.983973478087699 -57.0125688497493 0.983973478087697 -57.0125688497493 0.172752728973948 32.9343648802807 
! Gamma         !               0.0173127523497604 34.0162850570932 0.0173127523639403 34.0162850628416 
! Port Impedance50               0                50               0                

1.14             0.175495906258995 31.8889378178264 0.983460786783693 -58.0202974748617 0.983460786783692 -58.0202974748618 0.175497275078927 31.9281776383311 
! Gamma         !               0.0176469645069881 34.6237186756595 0.0176469645222146 34.6237186819509 
! Port Impedance50               0                50               0                

1.16             0.178223644595117 30.8743127714406 0.98294282065158 -59.0275284736253 0.982942820651578 -59.0275284736254 0.178224995293133 30.9223736045356 
! Gamma         !               0.0179767817144189 35.2311523032263 0.0179767817304494 35.231152309975  
! Port Impedance50               0                50               0                

1.18             0.180934364663923 29.8602180752213 0.982419751914759 -60.034257393467 0.982419751914759 -60.0342573934671 0.180935694534638 29.9169609949053 
! Gamma         !               0.0183026213801973 35.8385859387722 0.018302621396824 35.8385859459018 
! Port Impedance50               0                50               0                

1.2              0.183627875638237 28.8466547170202 0.981891753614242 -61.0404799701721 0.981891753614242 -61.0404799701722 0.183629181934555 28.9119476391251 
! Gamma         !               0.0186248629530494 36.4460195813931 0.0186248629700947 36.4460195888349 
! Port Impedance50               0                50               0                

1.22             0.186303990901294 27.8336237638073 0.981358999524287 -62.046192128332 0.981358999524286 -62.0461921283321 0.186305270834405 27.9073409969847 
! Gamma         !               0.0189438516646778 37.0534532302836 0.0189438516819899 37.0534532379763 
! Port Impedance50               0                50               0                

1.24             0.188962528041576 26.8211263401744 0.980821664068808 -63.0513899816823 0.980821664068807 -63.0513899816824 0.188963778780931 26.9031481732035 
! Gamma         !               0.0192599018550351 37.6608868847276 0.0192599018724845 37.660886892617  
! Port Impedance50               0                50               0                

1.26             0.191603308845181 25.8091636088791 0.980279922238615 -64.0560698333344 0.980279922238614 -64.0560698333345 0.191604527518432 25.8993759308438 
! Gamma         !               0.0195732999329039 38.2683205440875 0.0195732999503803 38.2683205521255 
! Port Impedance50               0                50               0                

1.28             0.194226159285736 24.7977367532238 0.979733949509557 -65.0602281759011 0.979733949509556 -65.0602281759012 0.194227342978643 24.8960307034816 
! Gamma         !               0.0198843070168936 38.8757542077939 0.0198843070343038 38.8757542159372 
! Port Impedance50               0                50               0                

1.3              0.196830909511927 23.7868469610836 0.979183921761639 -66.0638616915182 0.979183921761639 -66.0638616915183 0.196832055268228 23.893118606281  
! Gamma         !               0.0201931612957662 39.4831878753394 0.0201931613130312 39.4831878835499 
! Port Impedance50               0                50               0                

1.32             0.199417393832697 22.7764954104199 0.978630015199156 -67.0669672517648 0.978630015199156 -67.0669672517649 0.199418498653921 22.890645446102  
! Gamma         !               0.0205000801417445 40.0906215462692 0.0205000801587983 40.0906215545126 
! Port Impedance50               0                50               0                

1.34             0.201985450700141 21.7666832561398 0.978072406271924 -68.0695419174822 0.978072406271924 -68.0695419174823 0.201986511545383 21.8886167307553 
! Gamma         !               0.0208052620059644 40.6980552201774 0.0208052620227519 40.6980552284237 
! Port Impedance50               0                50               0                

1.36             0.204534922690183 20.7574116181699 0.977511271597649 -69.071582938496 0.977511271597648 -69.0715829384961 0.204535936475807 20.8870376775012 
! Gamma         !               0.0211088881214113 41.3054888967    0.0211088881378869 41.3054889049225 
! Port Impedance50               0                50               0                

1.38             0.207065656481053 19.7486815706343 0.976946787885491 -70.0730877532412 0.97694678788549 -70.0730877532413 0.207066620080357 19.8859132208818 
! Gamma         !               0.0214111240353934 41.9129225755107 0.0214111240515194 41.9129225836859 
! Port Impedance50               0                50               0                

1.4              0.209577502829657 18.740494132036  0.976379131860874 -71.0740539882942 0.976379131860874 -71.0740539882943 0.209578413072459 18.8852480199624 
! Gamma         !               0.021712120990798 42.5203562563176 0.0217121210065443 42.520356264425  
! Port Impedance50               0                50               0                

1.42             0.212070316545865 17.7328502563501 0.975808480191591 -72.0744794578126 0.975808480191591 -72.0744794578128 0.212071170218033 17.885046465049  
! Gamma         !               0.0220120171729553 43.1277899388584 0.0220120171882979 43.1277899468795 
! Port Impedance50               0                50               0                

1.44             0.214543956464789 16.7257508249511 0.975235009415238 -73.0743621628862 0.975235009415238 -73.0743621628863 0.2145447503077  16.8853126839418 
! Gamma         !               0.022310938836844 43.7352236228972 0.0223109388517643 43.7352236308166 
! Port Impedance50               0                50               0                

1.46             0.216998285417105 15.7191966393003 0.97465889586803 -74.0737002908002 0.97465889586803 -74.0737002908003 0.216999016127044 15.8860505477781 
! Gamma         !               0.0226090013275764 44.3426573082239 0.0226090013420605 44.3426573160275 
! Port Impedance50               0                50               0                

1.48             0.219433170197483 14.7131884143287 0.974080315615029 -75.072492214215 0.97408031561503 -75.0724922142151 0.21943383442496 14.8872636765085 
! Gamma         !               0.0229063100055388 44.9500909946485 0.0229063100195768 44.9500910023242 
! Port Impedance50               0                50               0                

1.5              0.22184848153117 13.7077267724593 0.973499444381827 -76.0707364902629 0.973499444381827 -76.070736490263 0.221849075880178 13.8889554440498 
! Gamma         !               0.023202961086206 45.5575246820001 0.0232029610997913 45.5575246895383 
! Port Impedance50               0                50               0                

1.52             0.224244094038801 12.7028122382125 0.972916457487701 -77.0684318595655 0.972916457487702 -77.0684318595656 0.224244615065991 12.8911289831485 
! Gamma         !               0.0234990424034768 46.164958370127  0.0234990424166061 46.1649583775188 
! Port Impedance50               0                50               0                

1.54             0.226619886199477 11.698445233351  0.972331529780294 -78.0655772451743 0.972331529780295 -78.0655772451745 0.226620330413276 11.8937871899892 
! Gamma         !               0.0237946341043524 46.772392058892  0.0237946341170249 46.7723920661295 
! Port Impedance50               0                50               0                

1.56             0.228975740312203 10.6946260725173 0.971744835571821 -79.062171751436 0.971744835571822 -79.0621717514362 0.228976104171843 10.8969327285735 
! Gamma         !               0.0240898092818804 47.3798257481713 0.0240898092940974 47.3798257552493 
! Port Impedance50               0                50               0                

1.58             0.231311542455697 9.69135495932779 0.971156548576848 -80.0582146627867 0.971156548576849 -80.0582146627868 0.231311822370188 9.90056803489638 
! Gamma         !               0.0243846345525122 47.9872594378559 0.024384634564277 47.9872594447685 
! Port Impedance50               0                50               0                

1.6              0.233627182446677 8.6886319828862  0.970566841851649 -81.0537054424758 0.97056684185165 -81.0537054424759 0.233627374773707 8.90469532094101 
! Gamma         !               0.0246791705833332 48.5946931278462 0.0246791705946506 48.5946931345902 
! Port Impedance50               0                50               0                

1.62             0.235922553796658 7.68645711468349 0.96997588773517 -82.048643731224 0.969975887735171 -82.0486437312242 0.235922654841411 7.90931657851236 
! Gamma         !               0.024973472574025 49.2021268180543 0.0249734725849012 49.2021268246265 
! Port Impedance50               0                50               0                

1.64             0.238197553667315 6.6848302058564  0.969383857791606 -83.0430293458167 0.969383857791608 -83.0430293458168 0.238197559681243 6.91443358292585 
! Gamma         !               0.0252675906978925 49.8095605084011 0.025267590708335 49.809560514799  
! Port Impedance50               0                50               0                

1.66             0.240452082824495 5.6837509847751  0.968790922754622 -84.0368622776357 0.968790922754623 -84.0368622776358 0.240451990004005 5.92004789656724 
! Gamma         !               0.025561570505824 50.416994198816  0.0255615705158411 50.4169942050383 
! Port Impedance50               0                50               0                

1.68             0.242686045590907 4.68321905493731 0.968197252473199 -85.0301426911326 0.968197252473201 -85.0301426911328 0.242685850076   4.92616087233672 
! Gamma         !               0.0258554532966408 51.0244278892365 0.0258554533062415 51.0244278952822 
! Port Impedance50               0                50               0                

1.7              0.244899349797572 3.6832338931446  0.967603015859155 -86.0228709222457 0.967603015859156 -86.0228709222458 0.244899047670408 3.93277365698945 
! Gamma         !               0.026149276456935 51.6318615796065 0.026149276466129 51.6318615854755 
! Port Impedance50               0                50               0                

1.72             0.247091906734075 2.68379484794033 0.967008380836306 -87.015047476763 0.967008380836307 -87.0150474767632 0.247091494017485 2.93988719438283 
! Gamma         !               0.026443073773171 52.2392952698766 0.0264430737819686 52.239295275569  
! Port Impedance50               0                50               0                

1.74             0.249263631097678 1.68490113829023 0.966413514291301 -88.0066730286352 0.966413514291302 -88.0066730286354 0.249263103753624 1.94750222864003 
! Gamma         !               0.0267368757185446 52.8467289600029 0.0267368757269564 52.8467289655196 
! Port Impedance50               0                50               0                

1.76             0.251414440941361 0.686551852487175 0.965818582026114 -88.9977484182393 0.965818582026114 -88.9977484182395 0.251413794869334 0.955619307237763 
! Gamma         !               0.027030709716842 53.4541626499463 0.0270307097248789 53.4541626552885 
! Port Impedance50               0                50               0                

1.78             0.253544257620831 -0.311254052735586 0.965223748712208 -89.9882746505971 0.96522374871221 -89.9882746505973 0.253543488656205 -0.0357612159740792 
! Gamma         !               0.0273246003853173 54.0615963396736 0.0273246003929904 54.0615963448425 
! Port Impedance50               0                50               0                

1.8              0.255653005740563 -1.3085177528987 0.96462917784636 -90.9782528935509 0.964629177846361 -90.9782528935511 0.255652109652906 -1.02663917781505 
! Gamma         !               0.0276185697584098 54.6690300291545 0.0276185697657304 54.6690300341521 
! Port Impedance50               0                50               0                

1.82             0.257740613098928 -2.30524055629174 0.964035031708131 -91.9676844758977 0.964035031708133 -91.9676844758979 0.25773958559026 -2.01701460287294 
! Gamma         !               0.0279126374939431 55.2764637183634 0.0279126375009226 55.2764637231918 
! Port Impedance50               0                50               0                

1.84             0.259807010632453 -3.30142390432274 0.963441471319009 -92.9565708854868 0.96344147131901 -92.956570885487 0.259805847335475 -3.00688770065406 
! Gamma         !               0.0282068210632937 55.8838974072774 0.0282068210699435 55.883897411939  
! Port Impedance50               0                50               0                

1.86             0.261852132359275 -4.29706937171411 0.962848656403176 -93.9449137672807 0.962848656403179 -93.9449137672809 0.261850828835558 -3.99625886278073 
! Gamma         !               0.0285011359268713 56.4913310958779 0.0285011359332026 56.4913311003753 
! Port Impedance50               0                50               0                

1.88             0.263875915321836 -5.2921786665556 0.962256745349922 -94.9327149213839 0.962256745349923 -94.9327149213841 0.26387446705998 -4.98512866023184 
! Gamma         !               0.0287955956961313 57.0987647841485 0.0287955957021555 57.0987647884845 
! Port Impedance50               0                50               0                

1.9              0.265878299528865 -6.28675363022587 0.961665895177661 -95.9199763010412 0.961665895177663 -95.9199763010414 0.265876701942629 -5.97349784062357 
! Gamma         !               0.0290902122832246 57.7061984720751 0.0290902122889528 57.7061984762527 
! Port Impedance50               0                50               0                

1.92             0.267859227896707 -7.28079623719125 0.961076261499583 -96.9067000106075 0.961076261499585 -96.9067000106077 0.267857476323118 -6.96136732552692 
! Gamma         !               0.0293849960392879 58.3136321596466 0.0293849960447309 58.3136321636691 
! Port Impedance50               0                50               0                

1.94             0.269818646190036 -8.27430859469154 0.960487998490873 -97.8928883034928 0.960487998490875 -97.892888303493 0.269816735887476 -7.94873820782005 
! Gamma         !               0.0296799558822892 58.9210658468537 0.0296799558874581 58.9210658507242 
! Port Impedance50               0                50               0                

1.96             0.271756502962009 -9.26729294232079 0.959901258857521 -98.8785435800835 0.959901258857522 -98.8785435800837 0.271754429108296 -8.93561174907254 
! Gamma         !               0.0299750994152598 59.5284995336894 0.0299750994201651 59.528499537411  
! Port Impedance50               0                50               0                

1.98             0.273672749493909 -10.259751651511 0.959316193806679 -99.863668385643 0.959316193806681 -99.8636683856432 0.273670507184354 -9.92198937696017 
! Gamma         !               0.0302704330356698 60.1359332201478 0.0302704330403218 60.1359332237243 
! Port Impedance50               0                50               0                

2                0.275567339734303 -11.2516872249266 0.958732953018571 -100.848265408194 0.958732953018573 -100.848265408194 0.275564923979776 -10.9078726827083 
! Gamma         !               0.0305659620366396 60.7433669062253 0.0305659620410487 60.7433669096599 
! Port Impedance50               0                50               0                

2.02             0.277440230237793 -12.2431022957753 0.958151684619907 -101.832337476384 0.958151684619909 -101.832337476384 0.277437635962776 -11.8932634185627 
! Gamma         !               0.0308616907006197 61.3508005919192 0.0308616907047958 61.3508005952155 
! Port Impedance50               0                50               0                

2.04             0.279291380103376 -13.2339996270433 0.957572535158798 -102.815887557338 0.957572535158799 -102.815887557338 0.27928860214402 -12.8781634952855 
! Gamma         !               0.0311576223861147 61.9582342772282 0.0311576223900676 61.9582342803899 
! Port Impedance50               0                50               0                

2.06             0.281120750912458 -14.2243821106594 0.956995649581145 -103.798918754496 0.956995649581148 -103.798918754497 0.281117784014658 -13.8625749796772 
! Gamma         !               0.0314537596079823 62.5656679621526 0.0314537596117213 62.5656679651832 
! Port Impedance50               0                50               0                

2.08             0.282928306666587 -15.2142527665947 0.956421171208479 -104.781434305448 0.956421171208479 -104.781434305448 0.282925145484053 -14.8465000921214 
! Gamma         !               0.0317501041117909 63.1731016466929 0.0317501041153254 63.1731016495961 
! Port Impedance50               0                50               0                

2.1              0.284714013724915 -16.2036147419022 0.955849241717207 -105.76343757975 0.955849241717208 -105.763437579751 0.28471065281727 -15.8299412041536 
! Gamma         !               0.03204665694268 63.7805353308515 0.0320466569460189 63.7805353336307 
! Port Impedance50               0                50               0                

2.12             0.28647784074145 -17.1924713097015 0.955280001119284 -106.744932076748 0.955280001119285 -106.744932076748 0.286474274572342 -16.8129008360516 
! Gamma         !               0.0323434185091329 64.387969014631  0.0323434185122848 64.3879690172897 
! Port Impedance50               0                50               0                

2.14             0.288219758602127 -18.1808258681138 0.954713587744222 -107.725921423385 0.954713587744223 -107.725921423385 0.288215981537367 -17.7953816544479 
! Gamma         !               0.0326403886420341 64.9954026980347 0.0326403886450075 64.9954027005768 
! Port Impedance50               0                50               0                

2.16             0.289939740361736 -19.1686819391504 0.954150138222463 -108.706409372017 0.954150138222464 -108.706409372017 0.289935746667461 -18.7773864699639 
! Gamma         !               0.0329375666493595 65.602836381067  0.0329375666521626 65.6028363834959 
! Port Impedance50               0                50               0                

2.18             0.291637761180747 -20.1560431675592 0.953589787470054 -109.686399798222 0.953589787470054 -109.686399798222 0.291633545021624 -19.7589182348642 
! Gamma         !               0.0332349513668149 66.2102700637326 0.0332349513694555 66.2102700660517 
! Port Impedance50               0                50               0                

2.2              0.29331379826207 -21.1429133196332 0.953032668674602 -110.665896698616 0.953032668674604 -110.665896698617 0.293309353699519 -20.7399800407315 
! Gamma         !               0.0335325412047155 66.8177037460366 0.0335325412072012 66.8177037482496 
! Port Impedance50               0                50               0                

2.22             0.294967830787767 -22.1292962819838 0.952478913282491 -111.64490418867 0.952478913282493 -111.64490418867 0.294963151778241 -21.7205751161622 
! Gamma         !               0.033830334191377 67.4251374279848 0.0338303341937152 67.4251374300951 
! Port Impedance50               0                50               0                

2.24             0.296599839855774 -23.1151960602832 0.951928650987307 -112.62342650053 0.951928650987309 -112.62342650053 0.296594920249073 -22.7007068244805 
! Gamma         !               0.0341283280132674 68.0325711095836 0.0341283280154652 68.0325711115945 
! Port Impedance50               0                50               0                

2.26             0.298209808416654 -24.1006167779773 0.951382009719461 -113.601467980853 0.951382009719462 -113.601467980853 0.298204641954285 -23.680378661474 
! Gamma         !               0.034426520052149 68.6400047908389 0.0344265200542131 68.6400047927539 
! Port Impedance50               0                50               0                

2.28             0.299797721210406 -25.0855626749743 0.950839115636964 -114.57903308864 0.950839115636965 -114.57903308864 0.299792301523996 -24.6595942531467 
! Gamma         !               0.0347249074194232 69.2474384717579 0.0347249074213605 69.2474384735804 
! Port Impedance50               0                50               0                

2.3              0.301363564703368 -26.0700381063092 0.950300093117333 -115.55612639309 0.950300093117334 -115.55612639309 0.301357885313126 -25.638357353492 
! Gamma         !               0.035023486987877 69.8548721523475 0.0350234869896936 69.8548721540805 
! Port Impedance50               0                50               0                

2.32             0.302907327025249 -27.0540475407886 0.949765064750579 -116.532752571459 0.94976506475058 -116.532752571459 0.302901381338489 -26.616671842285 
! Gamma         !               0.0353222554210095 70.4623058326147 0.0353222554227116 70.4623058342614 
! Port Impedance50               0                50               0                

2.34             0.304428997906305 -28.0375955596167 0.949234151333261 -117.508916406932 0.949234151333264 -117.508916406932 0.304422779216023 -27.5945417228931 
! Gamma         !               0.0356212092001113 71.0697395125672 0.0356212092017048 71.0697395141308 
! Port Impedance50               0                50               0                

2.36             0.305928568614699 -29.0206868550064 0.948707471863564 -118.484622786518 0.948707471863566 -118.484622786518 0.305922070098217 -28.5719711201047 
! Gamma         !               0.0359203446492511 71.6771731922121 0.0359203446507414 71.6771731936957 
! Port Impedance50               0                50               0                

2.38             0.307406031894069 -30.0033262287757 0.948185143537359 -119.459876698949 0.948185143537361 -119.459876698949 0.307399246611733 -29.5489642779782 
! Gamma         !               0.0362196579583146 72.2846068715572 0.0362196579597073 72.2846068729638 
! Port Impedance50               0                50               0                

2.4              0.308861381901317 -30.9855185909317 0.947667281745235 -120.434683232606 0.947667281745236 -120.434683232606 0.308854302795277 -30.525525557707 
! Gamma         !               0.0365191452042324 72.8920405506104 0.0365191452055327 72.8920405519429 
! Port Impedance50               0                50               0                

2.42             0.310294614144674 -31.9672689582459 0.947154000070438 -121.409047573456 0.94715400007044 -121.409047573456 0.310287234037715 -31.5016594355041 
! Gamma         !               0.0368188023705198 73.4994742293792 0.0368188023717325 73.4994742306404 
! Port Impedance50               0                50               0                

2.44             0.311705725422032 -32.9485824528198 0.946645410287715 -122.382975003016 0.946645410287716 -122.382975003016 0.311698037016487 -32.477370500505 
! Gamma         !               0.0371186253652467 74.1069079078714 0.0371186253663769 74.106907909064  
! Port Impedance50               0                50               0                

2.46             0.313094713759591 -33.9294643006434 0.94614162236299 -123.356470896332 0.946141622362991 -123.356470896332 0.313086709636321 -33.4526634526876 
! Gamma         !               0.0374186100375454 74.7143415860948 0.0374186100385974 74.7143415872218 
! Port Impedance50               0                50               0                

2.48             0.314461578350826 -34.909919830149 0.945642744453885 -124.329540719979 0.945642744453886 -124.329540719979 0.314453250968278 -34.4275431008101 
! Gamma         !               0.0377187521927562 75.3217752640571 0.0377187521937343 75.321775265121  
! Port Impedance50               0                50               0                

2.5              0.31580631949582 -35.8899544707602 0.945148882911006 -125.302190030091 0.945148882911008 -125.302190030091 0.315797661189153 -35.4020143603669 
! Gamma         !               0.0380190476063058 75.929208941766  0.0380190476072143 75.9292089427694 
! Port Impedance50               0                50               0                

2.52             0.317128938540949 -36.8695737514383 0.944660142279997 -126.274424470406 0.944660142279999 -126.274424470406 0.317119941521244 -36.376082251562 
! Gamma         !               0.038319492036406 76.5366426192294 0.0383194920372487 76.5366426201748 
! Port Impedance50               0                50               0                

2.54             0.318429437818983 -37.8487832992261 0.944176625304292 -127.246249770339 0.944176625304293 -127.24624977034 0.318420094172522 -37.3497518972991 
! Gamma         !               0.0386200812356522 77.1440762964547 0.0386200812364332 77.1440762973445 
! Port Impedance50               0                50               0                

2.56             0.31970782058958 -38.8275888377925 0.943698432928567 -128.217671743084 0.943698432928569 -128.217671743085 0.319698122277212 -38.3230285211894 
! Gamma         !               0.0389208109616005 77.7515099734494 0.0389208109623232 77.7515099742862 
! Port Impedance50               0                50               0                

2.58             0.320964090980229 -39.805996185976 0.943225664302836 -129.188696283734 0.943225664302836 -129.188696283734 0.320954029836806 -39.2959174455762 
! Gamma         !               0.0392216769863913 78.3589436502213 0.0392216769870593 78.3589436510072 
! Port Impedance50               0                50               0                

2.6              0.322198253927636 -40.7840112563301 0.942758416787157 -130.159329367432 0.942758416787158 -130.159329367433 0.322187821661527 -40.2684240895765 
! Gamma         !               0.0395226751054878 78.9663773267775 0.0395226751061043 78.9663773275148 
! Port Impedance50               0                50               0                

2.62             0.323410315119576 -41.7616400536714 0.94229678595693 -131.129577047556 0.942296785956931 -131.129577047556 0.323399503312271 -41.240553967139 
! Gamma         !               0.0398238011455897 79.5738110031254 0.0398238011461579 79.5738110038162 
! Port Impedance50               0                50               0                

2.64             0.324600280937244 -42.7388886736297 0.941840865608737 -132.099445453914 0.941840865608737 -132.099445453914 0.324589081043024 -42.2123126851188 
! Gamma         !               0.0401250509717802 80.181244679272  0.0401250509723031 80.1812446799185 
! Port Impedance50               0                50               0                

2.66             0.325768158398105 -43.7157633012024 0.9413907477667  -133.06894079099 0.941390747766702 -133.06894079099 0.325756561743794 -43.1837059413679 