! Touchstone file exported from HFSS 2018.2.0
!        File:           C:/Users/10024/OneDrive - The University of Nottingham Ningbo China/Year 4/Final Year Project/HFSS project/Passive_Resonator_Antenna.aedt
!        Generated:      12:15:00 下午  3月 12, 2022
!        Design:         SMA_Thru
!        Project:        Passive_Resonator_Antenna
!        Setup:          Setup1
!        Solution:       Sweep
!
! Variables:
!        MW = 1mm
!        ThruL = 8mm
!        g = 0.2mm
!        subH = 0.8mm
!        subX = 20mm
!        subY = 18mm
!        tapW = 1mm
!
# GHZ S MA R 50.000000
! Modal data exported
! Port[1] = SMA_CONNECTOR1_1:1
! Port[2] = SMA_CONNECTOR2_1:1
1                0.188876601845098 33.2492477798289 0.980961720834017 -56.6761754268735 0.980961720834018 -56.6761754268735 0.188876428238211 33.2560681783784 
! Gamma         !               0.0151858380091562 30.3716836112055 0.0151858380091506 30.3716836111856 
! Port Impedance50               0                50               0                

1.02             0.192160438946041 32.1276354488184 0.980292554483954 -57.7944143730861 0.980292554483955 -57.7944143730861 0.192160257499593 32.1341507724235 
! Gamma         !               0.0154804365705142 30.9791172971812 0.0154804365705256 30.9791172972127 
! Port Impedance50               0                50               0                

1.04             0.195417285800603 31.0067993605774 0.979616807531267 -58.9118441786571 0.979616807531268 -58.9118441786571 0.195417096338544 31.0130244420799 
! Gamma         !               0.0157761901094751 31.5865509814088 0.0157761901095018 31.586550981486  
! Port Impedance50               0                50               0                

1.06             0.198646819692604 29.8867489636197 0.978934811289312 -60.0284580653693 0.978934811289312 -60.0284580653693 0.198646622034879 29.8926981557266 
! Gamma         !               0.0160730042229234 32.1939846640332 0.0160730042229641 32.19398466415   
! Port Impedance50               0                50               0                

1.08             0.201848727070208 28.7674930349881 0.978246897993306 -61.144249686796 0.978246897993306 -61.1442496867961 0.201848521032353 28.7731802515765 
! Gamma         !               0.016370790131128 32.8014183451905 0.0163707901311811 32.8014183453421 
! Port Impedance50               0                50               0                

1.1              0.205022703494215 27.6490397023078 0.977553400588801 -62.2592131280615 0.977553400588802 -62.2592131280615 0.205022488886974 27.6544784559076 
! Gamma         !               0.0166694644718133 33.4088520250081 0.0166694644718775 33.4088520251896 
! Port Impedance50               0                50               0                

1.12             0.208168453579112 26.531396464144  0.976854652523976 -63.3733429053268 0.976854652523977 -63.3733429053268 0.20816823020807 26.5365999000063 
! Gamma         !               0.0169689490905951 34.0162857036039 0.0169689490906689 34.0162857038111 
! Port Impedance50               0                50               0                

1.14             0.211285690927083 25.4145702088285 0.976150987545851 -64.486633965007 0.976150987545852 -64.486633965007 0.211285458592305 25.4195511359402 
! Gamma         !               0.0172691708292444 34.6237193810896 0.0172691708293265 34.6237193813185 
! Port Impedance50               0                50               0                

1.16             0.214374138055236 24.2985672319139 0.975442739500539 -65.5990816827248 0.97544273950054 -65.5990816827248 0.214373896550929 24.303338151269  
! Gamma         !               0.0175700613131072 35.2311530575684 0.0175700613131963 35.2311530578154 
! Port Impedance50               0                50               0                

1.18             0.217433526316267 23.1833932523898 0.974730242137625 -66.7106818620072 0.974730242137624 -66.7106818620072 0.217433275430448 23.1879663827985 
! Gamma         !               0.0178715567388644 35.8385867331364 0.0178715567389593 35.8385867333984 
! Port Impedance50               0                50               0                

1.2              0.220463595812831 22.069053427792  0.974013828918784 -67.8214307327317 0.974013828918785 -67.8214307327318 0.220463335327006 22.0734407294708 
! Gamma         !               0.0181735976636925 36.4460204078838 0.0181735976637921 36.4460204081577 
! Port Impedance50               0                50               0                

1.22             0.223464095305844 20.9555523683201 0.973293832830729 -68.9313249493293 0.973293832830728 -68.9313249493293 0.223463824994696 20.959765564479  
! Gamma         !               0.018476128796762 37.0534540818934 0.0184761287968652 37.0534540821765 
! Port Impedance50               0                50               0                

1.24             0.226434782116986 19.8428941500669 0.972570586202561 -70.0403615887492 0.97257058620256 -70.0403615887492 0.226434501748075 19.8469447466882 
! Gamma         !               0.018779098793889 37.6608877552427 0.0187790987939948 37.6608877555327 
! Port Impedance50               0                50               0                

1.26             0.229375422025652 18.731082327457  0.971844420527638 -71.1485381481957 0.971844420527638 -71.1485381481958 0.229375131359116 18.7349816314341 
! Gamma         !               0.019082460056054 38.2683214280034 0.0190824600561617 38.268321428298  
! Port Impedance50               0                50               0                

1.28             0.23228578916061 17.6201199449787 0.971115666289993 -72.2558525426409 0.971115666289993 -72.2558525426409 0.232285487948875 17.6238790807697 
! Gamma         !               0.0193861685323942 38.8757551002414 0.0193861685325028 38.8757551005386 
! Port Impedance50               0                50               0                

1.3              0.235165665886611 16.5100095482891 0.97038465279541 -73.3623031021232 0.97038465279541 -73.3623031021232 0.235165353874112 16.5136394732187 
! Gamma         !               0.0196901835281819 39.4831887720183 0.0196901835282909 39.4831887723162 
! Port Impedance50               0                50               0                

1.32             0.238014842686235 15.4007531947595 0.969651708007181 -74.4678885688387 0.96965170800718 -74.4678885688387 0.238014519609131 15.4042647130925 
! Gamma         !               0.0199944675182194 40.09062244339   0.019994467518328 40.0906224436871 
! Port Impedance50               0                50               0                

1.34             0.240833118037201 14.2923524635268 0.968917158386623 -75.5726080940322 0.968917158386622 -75.5726080940322 0.240832783623105 14.2957562394207 
! Gamma         !               0.0202989859659926 40.6980561144089 0.0202989859661001 40.6980561147039 
! Port Impedance50               0                50               0                

1.36             0.243620298285415 13.1848084651052 0.968181328738387 -76.6764612346971 0.968181328738386 -76.6764612346971 0.243619952253121 13.18811503454   
! Gamma         !               0.0206037071488614 41.3054897851224 0.0206037071489674 41.3054897854139 
! Port Impedance50               0                50               0                

1.38             0.24637619751401 12.07812185061   0.967444542060587 -77.7794479500907 0.967444542060586 -77.7794479500907 0.246375839573229 12.0813416323823 
! Gamma         !               0.0209086019894917 41.9129234555742 0.0209086019895956 41.9129234558613 
! Port Impedance50               0                50               0                

1.4              0.249100637408631 10.972292820637  0.966707119399785 -78.8815685980741 0.966707119399785 -78.8815685980741 0.249100267259722 10.9754361264986 
! Gamma         !               0.0212136438936781 42.5203571258042 0.0212136438937795 42.520357126086  
! Port Impedance50               0                50               0                

1.42             0.251793447119209 9.86732113383991 0.965969379710851 -79.9828239312841 0.965969379710849 -79.9828239312841 0.251793064452919 9.87039817784996 
! Gamma         !               0.021518808594653 43.1277907958493 0.0215188085947517 43.1277907961247 
! Port Impedance50               0                50               0                

1.44             0.25445446311849 8.76320611523965 0.965231639721694 -81.083215093145 0.965231639721693 -81.083215093145 0.254454067615694 8.76622702239593 
! Gamma         !               0.0218240740039264 43.7352244657421 0.0218240740040221 43.7352244660106 
! Port Impedance50               0                50               0                

1.46             0.257083529057551 7.65994666429761 0.964494213802892 -82.1827436137284 0.964494213802892 -82.1827436137284 0.25708312038899 7.6629214785047  
! Gamma         !               0.0221294200686637 44.3426581355129 0.0221294200687559 44.342658135774  
! Port Impedance50               0                50               0                

1.48             0.259680495618552 6.5575412627815  0.963757413842182 -83.2814114054695 0.963757413842182 -83.2814114054695 0.259680073444578 6.56047995420797 
! Gamma         !               0.0224348286355659 44.9500918051896 0.0224348286356546 44.9500918054426 
! Port Impedance50               0                50               0                

1.5              0.26224522036496 5.45598798244802 0.963021549123822 -84.3792207587475 0.963021549123823 -84.3792207587475 0.262244784335279 5.45890045432047 
! Gamma         !               0.0227402833211915 45.5575254747962 0.0227402833212764 45.5575254750411 
! Port Impedance50               0                50               0                

1.52             0.264777567589493 4.35528449256381 0.962286926212795 -85.4761743373374 0.962286926212795 -85.4761743373374 0.264777117342906 4.358180587441   
! Gamma         !               0.0230457693886223 46.1649591443553 0.0230457693887033 46.1649591445914 
! Port Impedance50               0                50               0                

1.54             0.267277408159992 3.25542806728425 0.96155384884382 -86.5722751737428 0.961553848843819 -86.5722751737428 0.267276943324137 3.2583175728505  
! Gamma         !               0.023351273630359 46.7723928138865 0.0233512736304361 46.7723928141136 
! Port Impedance50               0                50               0                

1.56             0.26974461936346 2.15641559290669 0.96082261781515 -87.6675266644151 0.960822617815149 -87.6675266644151 0.269744139554564 2.1593082473201  
! Gamma         !               0.0236567842573093 47.3798264834078 0.0236567842573823 47.3798264836259 
! Port Impedance50               0                50               0                

1.58             0.272179084748506 1.05824357501145 0.960093530887095 -88.761932564869 0.960093530887093 -88.761932564869 0.272178589571119 1.06114907183994 
! Gamma         !               0.0239622907937126 47.9872601529348 0.0239622907937815 47.9872601531436 
! Port Impedance50               0                50               0                

1.6              0.274580693966372 -0.0390918544953658 0.959366882685239 -89.8554969847008 0.959366882685239 -89.8554969847008 0.274580183013113 -0.0361638617209978 
! Gamma         !               0.0242677839778347 48.5946938224819 0.0242677839778996 48.5946938226814 
! Port Impedance50               0                50               0                

1.62             0.276949342610779 -1.13559493042802 0.958642964608291 -90.9482243825167 0.95864296460829 -90.9482243825167 0.27694881546208 -1.13263482401652 
! Gamma         !               0.0245732556682531 49.2021274920609 0.0245732556683139 49.2021274922511 
! Port Impedance50               0                50               0                

1.64             0.279284932056802 -2.23127024744637 0.957922064740491 -92.0401195607789 0.957922064740491 -92.0401195607789 0.279284388280648 -2.22826844167925 
! Gamma         !               0.0248786987555433 49.8095611616824 0.0248786987556001 49.8095611618635 
! Port Impedance50               0                50               0                

1.66             0.281587369298951 -3.32612275325272 0.957204467768546 -93.1311876605773 0.957204467768545 -93.1311876605772 0.281586808450619 -3.32306969082584 
! Gamma         !               0.0251841070791747 50.4169948313564 0.0251841070792275 50.4169948315281 
! Port Impedance50               0                50               0                

1.68             0.283856566788662 -4.42015774185386 0.956490454902976 -94.2214341563321 0.956490454902974 -94.2214341563321 0.283855988410465 -4.41704389060595 
! Gamma         !               0.025489475349415 51.0244285010902 0.025489475349464 51.0244285012529 
! Port Impedance50               0                50               0                

1.7              0.286092442271401 -5.51338084688311 0.955780303803835 -95.3108648504365 0.955780303803835 -95.3108648504364 0.286091845892421 -5.51019669679302 
! Gamma         !               0.0257947990740428 51.631862170891  0.025794799074088 51.6318621710447 
! Port Impedance50               0                50               0                

1.72             0.288294918623525 -6.60579803497812 0.955074288510704 -96.3994858678433 0.955074288510703 -96.3994858678433 0.288294303759353 -6.60253409541224 
! Gamma         !               0.0261000744896647 52.2392958407645 0.0261000744897061 52.2392958409096 
! Port Impedance50               0                50               0                

1.74             0.290463923689107 -7.69741559921023 0.954372679376866 -97.4873036506057 0.954372679376866 -97.4873036506057 0.290463289841578 -7.69406239640514 
! Gamma         !               0.0264052984974365 52.8467295107152 0.0264052984974743 52.8467295108518 
! Port Impedance50               0                50               0                

1.76             0.292599390116885 -8.78824015256415 0.953675743007606 -98.5743249523749 0.953675743007605 -98.5743249523749 0.292598736773813 -8.78478822732863 
! Gamma         !               0.0267104686029855 53.4541631807472 0.0267104686030199 53.4541631808753 
! Port Impedance50               0                50               0                

1.78             0.294701255197486 -9.87827862146435 0.952983742202501 -99.660556832863 0.952983742202499 -99.6605568328629 0.294700581832394 -9.87471852708789 
! Gamma         !               0.0270155828603352 54.0615968508627 0.0270155828603662 54.0615968509829 
! Port Impedance50               0                50               0                

1.8              0.296769460701092 -10.9675382393482 0.95229693590164 -100.746006652277 0.95229693590164 -100.746006652277 0.296768766772947 -10.963860539703 
! Gamma         !               0.0273206398196383 54.669030521065  0.0273206398196661 54.6690305211771 
! Port Impedance50               0                50               0                

1.82             0.298803952715693 -12.056026540284 0.951615579135662 -101.830682065728 0.951615579135661 -101.830682065728 0.298803237668635 -12.0522218081089 
! Gamma         !               0.0276256384785255 55.2764641913549 0.0276256384785503 55.2764641914594 
! Port Impedance50               0                50               0                

1.84             0.300804681486072 -13.1437513526334 0.950939922979495 -102.914591017625 0.950939922979494 -102.914591017625 0.300803944749141 -13.1398101679896 
! Gamma         !               0.027930578236882 55.8838978617336 0.0279305782369038 55.8838978618307 
! Port Impedance50               0                50               0                

1.86             0.302771601253658 -14.2307207927596 0.950270214509731 -103.997741736053 0.95027021450973 -103.997741736053 0.302770842240518 -14.2266337416471 
! Gamma         !               0.0282354588548716 56.4913315322013 0.0282354588548905 56.4913315322914 
! Port Impedance50               0                50               0                

1.88             0.304704670097365 -15.3169432587791 0.949606696765495 -105.080142727147 0.949606696765492 -105.080142727147 0.304703888206038 -15.3127009319065 
! Gamma         !               0.0285402804140295 57.0987652027579 0.0285402804140457 57.0987652028412 
! Port Impedance50               0                50               0                

1.9              0.306603849775571 -16.4024274243604 0.948949608712711 -106.16180276946 0.948949608712709 -106.16180276946 0.306603044388156 -16.3980204160576 
! Gamma         !               0.028845043281255 57.7061988734031 0.0288450432812687 57.70619887348   
! Port Impedance50               0                50               0                

1.92             0.308469105569328 -17.4871822325672 0.948299185211678 -107.242730908341 0.948299185211676 -107.24273090834 0.308468276051719 -17.4826011398352 
! Gamma         !               0.0291497480755372 58.3136325441358 0.0291497480755486 58.3136325442063 
! Port Impedance50               0                50               0                

1.94             0.31030040612691 -18.5712168897512 0.94765565698781 -108.322936450306 0.947655656987808 -108.322936450306 0.310299551828526 -18.566452311439 
! Gamma         !               0.0294543956372552 58.9210662149547 0.0294543956372644 58.9210662150192 
! Port Impedance50               0                50               0                

1.96             0.312097723309846 -19.6545408594903 0.947019250605456 -109.402428957441 0.947019250605455 -109.402428957441 0.312096843563346 -19.6495833955963 
! Gamma         !               0.0297589869999011 59.5284998858583 0.0297589869999081 59.528499885917  
! Port Impedance50               0                50               0                

1.98             0.313861032040483 -20.7371638565784 0.946390188444678 -110.481218241799 0.946390188444677 -110.481218241799 0.313860126161491 -20.7320041076659 
! Gamma         !               0.0300635233640773 60.1359335568449 0.0300635233640825 60.1359335568984 
! Port Impedance50               0                50               0                

2                0.315590310151225 -21.8190958410657 0.945768688680877 -111.559314359835 0.945768688680875 -111.559314359835 0.315589377438042 -21.813724407789 
! Gamma         !               0.0303680060736307 60.7433672279125 0.0303680060736339 60.7433672279607 
! Port Impedance50               0                50               0                

2.02             0.317285538235489 -22.9003470123499 0.945154965267148 -112.636727606852 0.945154965267146 -112.636727606852 0.317284577968817 -22.8947544950853 
! Gamma         !               0.0306724365937858 61.3508008990588 0.0306724365937874 61.3508008991021 
! Port Impedance50               0                50               0                

2.04             0.318946699500512 -23.9809278033221 0.944549227919266 -113.713468511481 0.944549227919263 -113.713468511481 0.318945710943166 -23.9751048018989 
! Gamma         !               0.0309768164911537 61.9582345702814 0.0309768164911537 61.95823457032   
! Port Impedance50               0                50               0                

2.06             0.320573779622035 -25.0608488745672 0.943951682103167 -114.789547830191 0.943951682103165 -114.789547830191 0.320572762018667 -25.0547859880931 
! Gamma         !               0.0312811474154913 62.5656682415779 0.0312811474154899 62.5656682416121 
! Port Impedance50               0                50               0                

2.08             0.322166766600983 -26.1401211086203 0.943362529024847 -115.864976541829 0.943362529024846 -115.864976541829 0.322165719177791 -26.1338089353986 
! Gamma         !               0.0315854310830967 63.1731019129456 0.0315854310830938 63.1731019129758 
! Port Impedance50               0                50               0                

2.1              0.323725650622171 -27.218755604281 0.942781965622516 -116.939765842199 0.942781965622515 -116.939765842198 0.323724572586627 -27.212184741814 
! Gamma         !               0.031889669261731 63.7805355843819 0.0318896692617268 63.7805355844083 
! Port Impedance50               0                50               0                

2.12             0.325250423915132 -28.2967636709868 0.94221018456095 -118.013927138683 0.942210184560948 -118.013927138683 0.325249314455693 -28.2899247160622 
! Gamma         !               0.0321938637569615 64.3879692558844 0.0321938637569564 64.3879692559069 
! Port Impedance50               0                50               0                

2.14             0.326741080617107 -29.3741568232458 0.941647374227886 -119.087472044902 0.941647374227884 -119.087472044902 0.326739938902932 -29.3670403721039 
! Gamma         !               0.032498016399829 64.9954029274498 0.0324980163998228 64.9954029274692 
! Port Impedance50               0                50               0                

2.16             0.328197616638235 -30.4509467751322 0.941093718732386 -120.160412375419 0.941093718732386 -120.160412375419 0.328196441818912 -30.4435434237082 
! Gamma         !               0.0328021290357428 65.6028365990758 0.0328021290357358 65.6028365990919 
! Port Impedance50               0                50               0                

2.18             0.329620029529044 -31.5271454348431 0.94054939790503 -121.232760140495 0.940549397905028 -121.232760140495 0.329618820734305 -31.5194457790841 
! Gamma         !               0.0331062035145195 66.210270270759  0.0331062035145116 66.2102702707722 
! Port Impedance50               0                50               0                

2.2              0.331008318350227 -32.6027648993195 0.940014587299843 -122.304527540889 0.940014587299841 -122.304527540889 0.331007074689674 -32.5947595355715 
! Gamma         !               0.0334102416814777 66.8177039424974 0.0334102416814691 66.8177039425079 
! Port Impedance50               0                50               0                

2.22             0.332362483544788 -33.6778174489317 0.93948945819786 -123.375726962708 0.939489458197859 -123.375726962708 0.332361204107616 -33.6694969743952 
! Gamma         !               0.0337142453695149 67.4251376142877 0.0337142453695057 67.4251376142955 
! Port Impedance50               0                50               0                

2.24             0.333682526812574 -34.7523155422301 0.938974177612213 -124.446370972319 0.938974177612211 -124.446370972319 0.333681210667301 -34.7436705554812 
! Gamma         !               0.0340182163920879 68.0325712861274 0.0340182163920782 68.032571286133  
! Port Impedance50               0                50               0                

2.26             0.334968450987239 -35.8262718107627 0.938468908294624 -125.516472311301 0.938468908294621 -125.516472311301 0.334967097181433 -35.8172929123382 
! Gamma         !               0.0343221565370317 68.6400049580135 0.0343221565370214 68.640004958017  
! Port Impedance50               0                50               0                

2.28             0.336220259915655 -36.8996990539583 0.937973808743229 -126.586043891463 0.937973808743228 -126.586043891463 0.336218867475671 -36.8903768470017 
! Gamma         !               0.0346260675611472 69.2474386299437 0.0346260675611365 69.2474386299452 
! Port Impedance50               0                50               0                

2.3              0.337437958339819 -37.9726102340781 0.937489033211612 -127.655098789916 0.937489033211611 -127.655098789916 0.337436526270532 -37.9629353250461 
! Gamma         !               0.0349299511855009 69.8548723019151 0.0349299511854898 69.8548723019148 
! Port Impedance50               0                50               0                

2.32             0.338621551781254 -39.045018471235 0.937014731718958 -128.723650244203 0.937014731718956 -128.723650244203 0.338620079065803 -39.0349814706614 
! Gamma         !               0.0352338090913755 70.4623059739256 0.0352338090913641 70.4623059739236 
! Port Impedance50               0                50               0                

2.34             0.339771046427946 -40.1169370384812 0.936551050061219 -129.791711647482 0.936551050061217 -129.791711647482 0.33976953202748 -40.1065285617965 
! Gamma         !               0.0355376429168195 71.0697396459722 0.035537642916808 71.0697396459689 
! Port Impedance50               0                50               0                

2.36             0.340886449023823 -41.1883793569632 0.936098129823217 -130.85929654378 0.936098129823215 -130.85929654378 0.340884891877251 -41.1775900253705 
! Gamma         !               0.0358414542537453 71.6771733180531 0.0358414542537335 71.6771733180484 
! Port Impedance50               0                50               0                

2.38             0.341967766760804 -42.259358991147 0.935656108391569 -131.926418623298 0.935656108391567 -131.926418623298 0.341966165784551 -42.2481794325498 
! Gamma         !               0.0361452446455277 72.2846069901652 0.0361452446455158 72.2846069901594 
! Port Impedance50               0                50               0                

2.4              0.343015007173405 -43.3298896441104 0.935225118968351 -132.993091717777 0.935225118968351 -132.993091717777 0.343013361261176 -43.3183104940933 
! Gamma         !               0.0364490155850598 72.8920406623069 0.0364490155850478 72.8920406623002 
! Port Impedance50               0                50               0                

2.42             0.344028178035946 -44.3999851529047 0.934805290585421 -134.059329795929 0.93480529058542 -134.059329795929 0.344026486058495 -44.387997055765 
! Gamma         !               0.0367527685132258 73.4994743344759 0.0367527685132139 73.4994743344681 
! Port Impedance50               0                50               0                

2.44             0.345007287262347 -45.4696594839837 0.934396748119285 -135.125146958928 0.934396748119283 -135.125146958928 0.345005548067253 -45.4572530938127 
! Gamma         !               0.0370565048177506 74.1069080066699 0.0370565048177387 74.1069080066614 
! Port Impedance50               0                50               0                

2.46             0.345952342808519 -46.5389267287009 0.933999612306466 -136.190557435957 0.933999612306465 -136.190557435957 0.345950555219971 -46.5260927105152 
! Gamma         !               0.0373602258323928 74.714341678887  0.0373602258323809 74.7143416788777 
! Port Impedance50               0                50               0                

2.48             0.346863352577361 -47.6078010988744 0.933613999759245 -137.255575579824 0.933613999759243 -137.255575579824 0.34686151539595 -47.5945301297939 
! Gamma         !               0.0376639328364458 75.3217753511253 0.037663932836434 75.3217753511156 
! Port Impedance50               0                50               0                

2.5              0.347740324326375 -48.6762969224178 0.93324002298172 -138.320215862632 0.933240022981718 -138.320215862633 0.347738436328896 -48.6625796928923 
! Gamma         !               0.0379676270545194 75.9292090233829 0.0379676270545077 75.9292090233727 
! Port Impedance50               0                50               0                

2.52             0.348583265577875 -49.7444286390378 0.932877790386098 -139.384492871515 0.932877790386096 -139.384492871516 0.348581325517138 -49.73025585412  
! Gamma         !               0.0382713096565693 76.536642695658  0.0382713096565577 76.5366426956475 
! Port Impedance50               0                50               0                

2.54             0.349392183531819 -50.8122107959966 0.932527406309148 -140.448421304427 0.932527406309146 -140.448421304427 0.349390190136473 -50.797573176661 
! Gamma         !               0.0385749817581519 77.144076367949  0.0385749817581405 77.1440763679382 
! Port Impedance50               0                50               0                

2.56             0.350167084981234 -51.8796580439386 0.932188971028715 -141.512015965996 0.932188971028714 -141.512015965996 0.350165036955598 -51.8645463284469 
! Gamma         !               0.0388786444208774 77.7515100402543 0.0388786444208662 77.7515100402433 
! Port Impedance50               0                50               0                

2.58             0.35090797623027 -52.9467851327814 0.931862580780268 -142.575291763438 0.931862580780266 -142.575291763438 0.350905872254175 -52.9311900780921 
! Gamma         !               0.0391822986530403 78.3589437125723 0.0391822986530293 78.3589437125612 
! Port Impedance50               0                50               0                

2.6              0.35161486301484 -54.013606907667 0.931548327773355 -143.638263702522 0.931548327773354 -143.638263702522 0.351612701743488 -53.997519290891 
! Gamma         !               0.0394859454104045 78.9663773849015 0.0394859454103937 78.9663773848904 
! Port Impedance50               0                50               0                

2.62             0.352287750425864 -55.080138304976 0.931246300207951 -144.700946883597 0.931246300207949 -144.700946883597 0.352285530489696 -55.0635489248761 
! Gamma         !               0.0397895855971255 79.5738110572408 0.0397895855971149 79.5738110572298 
! Port Impedance50               0                50               0                

2.64             0.352926642835109 -56.1463943484001 0.930956582290586 -145.763356497678 0.930956582290584 -145.763356497678 0.352924362839692 -56.129294026936 
! Gamma         !               0.0400932200667919 80.1812447295886 0.0400932200667815 80.1812447295776 
! Port Impedance50               0                50               0                
